# vtk DataFile Version 4.2
written by meshio v4.4.6
ASCII
DATASET UNSTRUCTURED_GRID
POINTS 24232 double
0.0 10.0 0.0 0.0 12.0 0.0 0.0 8.0 0.0 0.0 -10.0 0.0 0.0 -6.0 0.0 0.0 -14.0 0.0 0.0 0.0 0.0 0.0 25.0 0.0 0.0 -25.0 0.0 0.07152563736473395 11.99872061159122 0.0 0.1378499757890535 11.99524369042354 0.0 0.1992865236336539 11.99004645209553 0.0 0.2561491371377846 11.98352908210179 0.0 0.308745883544172 11.97602529826785 0.0 0.358636917506448 11.96758216128361 0.0 0.4114686346237187 11.95721576805443 0.0 0.468048263315995 11.94446157668566 0.0 0.5268843945069359 11.92935036601055 0.0 0.5816794241364128 11.91354358391345 0.0 0.6321212665395622 11.89747798521838 0.0 0.6799612090131562 11.88086489526424 0.0 0.7305230013023322 11.8618099109652 0.0 0.7843943111894314 11.83976236633258 0.0 0.8398513147743961 11.81511701250132 0.0 0.8910787487029452 11.79052468947233 0.0 0.9379883240952382 11.76640253166174 0.0 0.9824636971194102 11.74205771541659 0.0 1.02933235478341 11.71478129899881 0.0 1.07897505122542 11.68398718487793 0.0 1.129504409612492 11.65052106580496 0.0 1.175773777421526 11.61788628287897 0.0 1.217881242384053 11.58643161827073 0.0 1.257765104574423 11.5550006243455 0.0 1.299609764621537 11.52020211146425 0.0 1.343610246043181 11.48145587404005 0.0 1.387809020800613 11.44013406382338 0.0 1.427876976282461 11.40041684530088 0.0 1.464054284568363 11.36255093550187 0.0 1.498238364330702 11.32487048561271 0.0 1.533858241792929 11.28346363177299 0.0 1.570949765442174 11.23778707153419 0.0 1.607601434235899 11.18979730569651 0.0 1.640405092314553 11.14414646488484 0.0 1.669696113248414 11.10096089367567 0.0 1.697220030660942 11.05803788567483 0.0 1.725578788155498 11.01112701767276 0.0 1.754677844432222 10.95974249789133 0.0 1.782787477567475 10.90645949155414 0.0 1.807472442378986 10.8561795197507 0.0 1.8291180906104 10.80890482171994 0.0 1.849195026743487 10.76189090627672 0.0 1.869450824829207 10.71074159407298 0.0 1.889688679468518 10.65503946040565 0.0 1.908511310415699 10.5979837606619 0.0 1.924453775279621 10.54449762792138 0.0 1.93791152786482 10.49446831058081 0.0 1.949949632001152 10.44463066994819 0.0 1.961479991203156 10.39063569231404 0.0 1.97222847729628 10.33213676902986 0.0 1.981289870961681 10.27292938138765 0.0 1.988112173990469 10.21773833753129 0.0 1.993069474303215 10.16635525420228 0.0 1.996688459989743 10.11504431208794 0.0 1.999109202074543 10.05968582897877 0.0 2.0 9.999999999999963 0.0 1.999109202074541 9.94031417102116 0.0 1.99668845998974 9.884955687911996 0.0 1.99306947430321 9.833644745797663 0.0 1.988112173990462 9.782261662468647 0.0 1.981289870961672 9.727070618612284 0.0 1.972228477296268 9.667863230970065 0.0 1.961479991203143 9.6093643076859 0.0 1.949949632001138 9.555369330051752 0.0 1.937911527864805 9.505531689419135 0.0 1.924453775279604 9.455502372078556 0.0 1.908511310415681 9.402016239338039 0.0 1.889688679468497 9.344960539594286 0.0 1.869450824829183 9.289258405926958 0.0 1.849195026743464 9.23810909372323 0.0 1.829118090610377 9.191095178280012 0.0 1.807472442378959 9.143820480249241 0.0 1.782787477567447 9.0935405084458 0.0 1.754677844432192 9.040257502108613 0.0 1.725578788155471 8.988872982327198 0.0 1.697220030660917 8.941962114325126 0.0 1.669696113248389 8.899039106324288 0.0 1.640405092314525 8.855853535115118 0.0 1.607601434235866 8.810202694303443 0.0 1.570949765442149 8.76221292846578 0.0 1.533858241792907 8.716536368226986 0.0 1.498238364330682 8.675129514387265 0.0 1.464054284568343 8.63744906449811 0.0 1.427876976282443 8.599583154699106 0.0 1.387809020800594 8.559865936176601 0.0 1.343610246043157 8.518544125959924 0.0 1.299609764621519 8.479797888535739 0.0 1.257765104574408 8.44499937565449 0.0 1.21788124238404 8.413568381729263 0.0 1.17577377742151 8.382113717121022 0.0 1.129504409612478 8.349478934195032 0.0 1.07897505122541 8.316012815122061 0.0 1.029332354783406 8.28521870100119 0.0 0.9824636971194002 8.257942284583407 0.0 0.9379883240952328 8.233597468338257 0.0 0.8910787487029413 8.209475310527665 0.0 0.8398513147743906 8.184882987498677 0.0 0.7843943111894274 8.160237633667418 0.0 0.7305230013023297 8.138190089034802 0.0 0.679961209013152 8.119135104735756 0.0 0.6321212665395581 8.102522014781615 0.0 0.5816794241364087 8.086456416086548 0.0 0.52688439450693 8.070649633989444 0.0 0.4680482633159908 8.055538423314339 0.0 0.4114686346237127 8.042784231945568 0.0 0.3586369175064368 8.032417838716391 0.0 0.308745883544159 8.023974701732152 0.0 0.2561491371377733 8.016470917898209 0.0 0.199286523633646 8.009953547904468 0.0 0.1378499757890456 8.004756309576457 0.0 0.07152563736473316 8.001279388408783 0.0 0.0 11.9293636428571 0.0 0.0 11.85807609250683 0.0 0.0 11.78511950107318 0.0 0.0 11.70957148983639 0.0 0.0 11.63061804045324 0.0 0.0 11.54753821188404 0.0 0.0 11.45967742241736 0.0 0.0 11.36642195912962 0.0 0.0 11.26717747386027 0.0 0.0 11.16135258620973 0.0 0.0 11.04834650214133 0.0 0.0 10.92753920476062 0.0 0.0 10.79828390661837 0.0 0.0 10.65990033253444 0.0 0.0 10.51166915779385 0.0 0.0 10.35282655462634 0.0 0.0 10.18255941761957 0.0 0.0 9.817440582380428 0.0 0.0 9.64717344537366 0.0 0.0 9.48833084220615 0.0 0.0 9.340099667465557 0.0 0.0 9.201716093381636 0.0 0.0 9.072460795239381 0.0 0.0 8.951653497858668 0.0 0.0 8.838647413790275 0.0 0.0 8.732822526139731 0.0 0.0 8.633578040870379 0.0 0.0 8.540322577582643 0.0 0.0 8.452461788115968 0.0 0.0 8.369381959546761 0.0 0.0 8.290428510163617 0.0 0.0 8.214880498926822 0.0 0.0 8.141923907493167 0.0 0.0 8.070636357142899 0.0 0.07318539055639774 -6.000669568714144 0.0 0.143668900191256 -6.002580926758137 0.0 0.2115288125013613 -6.005596970574731 0.0 0.2768444568316493 -6.009591857125191 0.0 0.3396956800111354 -6.014450245576933 0.0 0.4001622865227182 -6.020066565324878 0.0 0.4583236823147344 -6.026344327671374 0.0 0.5142584877431056 -6.033195466400673 0.0 0.5680442574237937 -6.040539718394962 0.0 0.6197572261879108 -6.048304037430528 0.0 0.6695665303292961 -6.056438074346646 0.0 0.7200219247159845 -6.065337571286669 0.0 0.7722746219305375 -6.075259001115864 0.0 0.8263734484529217 -6.086292432527435 0.0 0.8823663410583591 -6.098534936697845 0.0 0.9402999723049765 -6.112091055325079 0.0 1.000014632833561 -6.127020432003448 0.0 1.058369249460536 -6.142558551086441 0.0 1.114355142058259 -6.158358083140971 0.0 1.168064039259292 -6.174346278060536 0.0 1.219585263366174 -6.19045779845136 0.0 1.269005674487136 -6.206634133369225 0.0 1.316658963628399 -6.22290995957245 0.0 1.365199590574551 -6.240182174905933 0.0 1.415349920512935 -6.258772313463931 0.0 1.467142995640302 -6.278778234189261 0.0 1.520609803300867 -6.300304630634395 0.0 1.575778722007375 -6.32346339345454 0.0 1.63224275685691 -6.348180784500942 0.0 1.686880863871155 -6.373095955073349 0.0 1.739155106612431 -6.397870141826658 0.0 1.789167398007125 -6.422447761120962 0.0 1.83701605965211 -6.446780052321524 0.0 1.882795846476072 -6.470824487151078 0.0 1.927050369335374 -6.494792891419339 0.0 1.972290264431273 -6.520047254224618 0.0 2.01890363242542 -6.546881391701199 0.0 2.066906518157571 -6.575398206331466 0.0 2.116311732296005 -6.605707046858464 0.0 2.167128247532161 -6.637923980819561 0.0 2.218661696229893 -6.671706101065849 0.0 2.268100711546164 -6.705198160392072 0.0 2.315248035759192 -6.738155961283066 0.0 2.360212635794208 -6.770542411822481 0.0 2.403098838542921 -6.8023264750457 0.0 2.44400642383946 -6.8334825754101 0.0 2.483698739052653 -6.86451908415499 0.0 2.524328804628983 -6.897136147666093 0.0 2.566053673711358 -6.93155274713212 0.0 2.608871637181256 -6.96787388443172 0.0 2.652776633263538 -7.006210405854986 0.0 2.697757633010125 -7.046679199014166 0.0 2.742843906634368 -7.088504284076874 0.0 2.785763098340102 -7.129542900524978 0.0 2.826527176059603 -7.169674201969581 0.0 2.865248856714682 -7.208880334149894 0.0 2.902035364418643 -7.247148615768814 0.0 2.936988516805927 -7.284470870686503 0.0 2.97105659652457 -7.321787405703603 0.0 3.005882350227024 -7.360933631642876 0.0 3.041489256371999 -7.402050211537238 0.0 3.077857588736729 -7.445241173132828 0.0 3.114962288335637 -7.49061562485003 0.0 3.152772292182733 -7.538287816651826 0.0 3.190112258453507 -7.586872614538414 0.0 3.22538774612747 -7.634228690864065 0.0 3.258704352025139 -7.68033494959026 0.0 3.290175257064127 -7.725193024056106 0.0 3.319907371330972 -7.768808603955663 0.0 3.348001588220836 -7.811190879662925 0.0 3.375505762209413 -7.853849760783032 0.0 3.403482237269508 -7.898498474758835 0.0 3.431899773756642 -7.945233847152162 0.0 3.460720941926522 -7.99415589785467 0.0 3.489902079079445 -8.045368710360707 0.0 3.519389841662028 -8.098975238876115 0.0 3.547950432013379 -8.152827097433464 0.0 3.574684237862341 -8.205109307066714 0.0 3.599708731910919 -8.255839157243724 0.0 3.623134223712152 -8.305037346439239 0.0 3.645064228793365 -8.352727476107543 0.0 3.665607582600772 -8.398962508128019 0.0 3.685738332400604 -8.44586585357865 0.0 3.706001175569256 -8.494823835333786 0.0 3.72634803603363 -8.545926303673603 0.0 3.746724527871008 -8.599266152243842 0.0 3.767069387330906 -8.65493932068685 0.0 3.787283786128722 -8.712956285386355 0.0 3.806352374502862 -8.770495383857213 0.0 3.823894884234062 -8.826190852681506 0.0 3.840023170517654 -8.880079444832113 0.0 3.854841524548432 -8.932200009076082 0.0 3.868447133681699 -8.982593112904258 0.0 3.88096470199516 -9.031437672698543 0.0 3.893073428629967 -9.081316551093188 0.0 3.90496535029281 -9.133255739556038 0.0 3.916577282724377 -9.187336238997126 0.0 3.927839246828093 -9.243641056721795 0.0 3.938673873357877 -9.30225497541863 0.0 3.948950400235993 -9.362982938630378 0.0 3.958101286179473 -9.422562377096536 0.0 3.966066495961602 -9.480080246950681 0.0 3.972949110778285 -9.535591383406775 0.0 3.978844481507491 -9.589151375836083 0.0 3.983840740060976 -9.640816261740019 0.0 3.988045319630134 -9.690978109875395 0.0 3.991700819721111 -9.742464437722068 0.0 3.994792450876075 -9.795957665119403 0.0 3.997243536138797 -9.851527400519139 0.0 3.9989
[...]
POINT_DATA 24232
FIELD FieldData 1
node_groups 1 24232 long
300 300 300 301 301 301 302 200 200 300 300 300 300 300 300 300 300 300 300 300 300 300 300 300 300 300 300 300 300 300 300 300 300 300 300 300 300 300 300 300 300 300 300 300 300 300 300 300 300 300 300 300 300 300 300 300 300 300 300 300 300 300 300 300 300 300 300 300 300 300 300 300 300 300 300 300 300 300 300 300 300 300 300 300 300 300 300 300 300 300 300 300 300 300 300 300 300 300 300 300 300 300 300 300 300 300 300 300 300 300 300 300 300 300 300 300 300 300 300 300 300 300 300 300 300 300 300 300 300 300 300 300 300 300 300 300 300 300 300 300 300 300 300 300 300 300 300 300 300 300 300 300 300 300 301 301 301 301 301 301 301 301 301 301 301 301 301 301 301 301 301 301 301 301 301 301 301 301 301 301 301 301 301 301 301 301 301 301 301 301 301 301 301 301 301 301 301 301 301 301 301 301 301 301 301 301 301 301 301 301 301 301 301 301 301 301 301 301 301 301 301 301 301 301 301 301 301 301 301 301 301 301 301 301 301 301 301 301 301 301 301 301 301 301 301 301 301 301 301 301 301 301 301 301 301 301 301 301 301 301 301 301 301 301 301 301 301 301 301 301 301 301 301 301 301 301 301 301 301 301 301 301 301 301 301 301 301 301 301 301 301 301 301 301 301 301 301 301 301 301 301 301 301 301 301 301 301 301 301 301 301 301 301 301 301 301 301 301 301 301 301 301 301 301 301 301 301 301 301 301 301 301 301 301 301 301 301 301 301 301 301 301 301 301 301 301 301 301 301 301 301 301 301 301 301 301 301 301 301 301 301 301 301 301 301 301 301 301 301 301 301 301 301 301 301 301 301 301 301 301 301 301 301 301 301 301 301 301 301 301 301 301 301 301 301 301 301 301 301 301 301 301 301 301 301 301 301 301 301 301 301 301 301 301 301 301 301 301 301 301 301 301 301 301 301 301 301 301 301 301 301 301 301 301 301 301 301 301 301 301 301 301 301 301 200 200 200 200 200 200 200 200 200 200 200 200 200 200 200 200 200 200 200 200 200 200 200 200 200 200 200 200 200 200 200 200 200 200 200 200 200 200 200 200 200 200 200 200 200 200 200 200 200 200 200 200 200 200 200 200 200 200 200 200 200 200 200 200 200 200 200 200 200 200 200 200 200 200 200 200 200 200 200 200 200 200 200 200 200 200 200 200 200 200 200 200 200 200 200 200 200 200 200 200 200 200 200 200 200 200 200 200 200 200 200 200 200 200 200 200 200 200 200 200 200 200 200 200 200 200 200 200 200 200 200 200 200 200 200 200 200 200 200 200 200 200 200 200 200 200 200 200 200 200 200 200 200 200 200 302 302 302 302 302 302 302 302 302 302 302 302 302 302 302 302 302 302 302 302 302 302 302 302 302 302 302 302 302 302 302 302 302 302 302 302 302 302 302 302 302 302 302 302 302 302 302 302 302 302 302 302 302 302 302 302 302 302 302 302 302 302 302 302 302 302 302 302 302 302 302 302 302 302 302 302 302 302 302 302 302 302 302 302 302 302 302 302 302 302 302 302 302 302 302 302 302 302 302 302 302 302 302 302 302 302 302 302 302 302 302 302 302 302 302 302 302 302 302 302 302 302 302 302 302 302 302 302 302 302 302 302 302 302 302 302 302 302 302 302 302 302 302 302 302 302 302 302 302 302 302 302 302 302 302 302 302 302 302 302 302 300 300 300 300 300 300 300 300 300 300 300 300 300 300 300 300 300 300 300 300 300 300 300 300 300 300 300 300 300 300 300 300 300 300 300 300 300 300 300 300 300 300 300 300 300 300 300 300 300 300 300 300 300 300 300 300 300 300 300 300 300 300 300 300 300 300 300 300 300 300 300 300 300 300 300 300 300 300 300 300 300 300 300 300 300 300 300 300 300 300 300 300 300 300 300 300 300 300 300 300 300 300 300 300 300 300 300 300 300 300 300 300 300 300 300 300 300 300 300 300 300 300 300 300 300 300 300 300 300 300 300 300 300 300 300 300 300 300 300 300 300 300 300 300 300 300 300 300 300 300 300 300 300 300 300 300 300 300 300 300 300 300 300 300 300 300 300 300 300 300 300 300 300 300 300 300 300 300 300 300 300 300 300 300 300 300 300 300 300 300 300 300 300 300 300 300 300 300 300 300 300 300 300 300 300 300 300 300 300 300 300 300 300 300 300 300 300 300 300 300 300 300 300 300 300 300 300 300 300 300 300 300 300 300 300 300 300 300 300 300 300 300 300 300 300 300 300 300 300 300 300 300 300 300 300 300 300 300 300 300 300 300 300 300 300 300 300 300 300 300 300 300 300 300 300 300 300 300 300 300 300 300 300 300 300 300 300 300 300 300 300 300 300 300 300 300 300 300 300 300 300 300 300 300 300 300 300 300 300 300 300 300 300 300 300 300 300 300 300 300 300 300 300 300 300 300 300 300 300 300 300 300 300 300 300 300 300 300 300 300 300 300 300 300 300 300 300 300 300 300 300 300 300 300 300 300 300 300 300 300 300 300 300 300 300 300 300 300 300 300 300 300 300 300 300 300 300 300 300 300 300 300 300 300 300 300 300 300 300 300 300 300 300 300 300 300 300 300 300 300 300 300 300 300 300 300 300 300 300 300 300 300 300 300 300 300 300 300 300 300 300 300 300 300 300 300 300 300 300 300 300 300 300 300 300 300 300 300 300 300 300 300 300 300 300 300 300 300 300 300 300 300 300 300 300 300 300 300 300 300 300 300 300 300 300 300 300 300 300 300 300 300 300 300 300 300 300 300 300 300 300 300 300 300 300 300 300 300 300 300 300 300 300 300 300 300 300 300 300 300 300 300 300 300 300 300 300 300 300 300 300 300 300 300 300 300 300 300 300 300 300 300 300 300 300 300 300 300 300 300 300 300 300 300 300 300 300 300 300 300 300 300 300 300 300 300 300 300 300 300 300 300 300 300 300 300 300 300 300 300 300 300 300 300 300 300 300 300 300 300 300 300 300 300 300 300 300 300 300 300 300 300 300 300 300 300 300 300 300 300 300 300 300 300 300 300 300 300 300 300 300 300 300 300 300 300 300 300 300 300 300 300 300 300 300 300 300 300 300 300 300 300 300 300 300 300 300 300 300 300 300 300 300 300 300 300 300 300 300 300 300 300 300 300 300 300 300 300 300 300 300 300 300 300 300 300 300 300 300 300 300 300 300 300 300 300 300 300 300 300 300 300 300 300 300 300 300 300 300 300 300 300 300 300 300 300 300 300 300 300 300 300 300 300 300 300 300 300 300 300 300 300 300 300 300 300 300 300 300 300 300 300 300 300 300 300 300 300 300 300 300 300 300 300 300 300 300 300 300 300 300 300 300 300 300 300 300 300 300 300 300 300 300 300 300 300 300 300 300 300 300 300 300 300 300 300 300 300 300 300 300 300 300 300 300 300 300 300 300 300 300 300 300 300 300 300 300 300 300 300 300 300 300 300 300 300 300 300 300 300 300 300 300 300 300 300 300 300 300 300 300 300 300 300 300 300 300 300 300 300 300 300 300 300 300 300 300 300 300 300 300 300 300 300 300 300 300 300 300 300 300 300 300 300 300 300 300 300 300 300 300 300 300 300 300 300 300 300 300 300 300 300 300 300 300 300 300 300 300 300 300 300 300 300 300 300 300 300 300 300 300 300 300 300 300 300 300 300 300 300 300 300 300 300 300 300 300 300 300 300 300 300 300 300 300 300 300 300 300 300 300 300 300 300 300 300 300 300 300 300 300 300 300 300 300 300 300 300 300 300 300 300 300 300 300 300 300 300 300 300 300 300 300 300 300 300 300 300 300 300 300 300 300 300 300 300 300 300 300 300 300 300 300 300 300 300 300 300 300 300 300 300 300 300 300 300 300 300 300 300 300 300 300 300 300 300 300 300 300 300 300 300 300 300 300 300 300 300 300 300 300 300 300 300 300 300 300 300 300 300 300 300 300 300 300 300 300 300 300 300 300 300 300 300 300 300 300 300 300 300 300 300 300 300 300 300 300 300 300 300 300 300 300 300 300 300 300 300 300 300 300 300 300 300 300 300 300 300 300 300 300 300 300 300 300 300 300 300 300 300 300 300 300 300 300 300 300 300 300 300 300 300 300 300 300 300 300 300 300 300 300 300 300 300 300 300 300 300 300 300 300 300 300 300 300 300 300 300 300 300 300 300 300 300 300 300 300 300 300 300 300 300 300 300 300 300 300 300 300 300 300 300 300 300 300 300 300 300 300 300 300 300 300 300 300 300 300 300 300 300 300 300 300 300 301 301 301 301 301 301 301 301 301 301 301 301 301 301 301 301 301 301 301 301 301 301 301 301 301 301 301 301 301 301 301 301 301 301 301 301 301 301 301 301 301 301 301 301 301 301 301 301 301 301 301 301 301 301 301 301 301 301 301 301 301 301 301 301 301 301 301 301 301 301 301 301 301 301 301 301 301 301 301 301 301 301 301 301 301 301 301 301 301 301 301 301 301 301 301 301 301 301 301 301 301 301 301 301 301 301 301 301 301 301 301 301 301 301 301 301 301 301 301 301 301 301 301 301 301 301 301 301 301 301 301 301 301 301 301 301 301 301 301 301 301 301 301 301 301 301 301 301 301 301 301 301 301 301 301 301 301 301 301 301 301 301 301 301 301 301 301 301 301 301 301 301 301 301 301 301 301 301 301 301 301 301 301 301 301 301 301 301 301 301 301 301 301 301 301 301 301 301 301 301 301 301 301 301 301 301 301 301 301 301 301 301 301 301 301 301 301 301 301 301 301 301 301 301 301 301 301 301 301 301 301 301 301 301 301 301 301 301 301 301 301 301 301 301 301 301 301 301 301 301 301 301 301 301 301 301 301 301 301 301 301 301 301 301 301 301 301 301 301 301 301 301 301 301 301 301 301 301 301 301 301 301 301 301 301 301 301 301 301 301 301 301 301 301 301 301 301 301 301 301 301 301 301 301 301 301 301 301 301 301 301 301 301 301 301 301 301 301 301 301 301 301 301 301 301 301 301 301 301 301 301 301 301 301 301 301 301 301 301 301 301 301 301 301 301 301 301 301 301 301 301 301 301 301 301 301 301 301 301 301 301 301 301 301 301 301 301 301 301 301 301 301 301 301 301 301 301 301 301 301 301 301 301 301 301 301 301 301 301 301 301 301 301 301 301 301 301 301 301 301 301 301 301 301 301 301 301 301 301 301 301 301 301 301 301 301 301 301 301 301 301 301 301 301 301 301 301 301 301 301 301 301 301 301 301 301 301 301 301 301 301 301 301 301 301 301 301 301 301 301 301 301 301 301 301 301 301 301 301 301 301 301 301 301 301 301 301 301 301 301 301 301 301 301 301 301 301 301 301 301 301 301 301 301 301 301 301 301 301 301 301 301 301 301 301 301 301 301 301 301 301 301 301 301 301 301 301 301 301 301 301 301 301 301 301 301 301 301 301 301 301 301 301 301 301 301 301 301 301 301 301 301 301 301 301 301 301 301 301 301 301 301 301 301 301 301 301 301 301 301 301 301 301 301 301 301 301 301 301 301 301 301 301 301 301 301 301 301 301 301 301 301 301 301 301 301 301 301 301 301 301 301 301 301 301 301 301 301 301 301 301 301 301 301 301 301 301 301 301 301 301 301 301 301 301 301 301 301 301 301 301 301 301 301 301 301 301 301 301 301 301 301 301 301 301 301 301 301 301 301 301 301 301 301 301 301 301 301 301 301 301 301 301 301 301 301 301 301 301 301 301 301 301 301 301 301 301 301 301 301 301 301 301 301 301 301 301 301 301 301 301 301 301 301 301 301 301 301 301 301 301 301 301 301 301 301 301 301 301 301 301 301 301 301 301 301 301 301 301 301 301 301 301 301 301 301 301 301 301 301 301 301 301 301 301 301 301 301 301 301 301 301 301 301 301 301 301 301 301 301 301 301 301 301 301 301 301 301 301 301 301 301 301 301 301 301 301 301 301 301 301 301 301 301 301 301 301 301 301 301 301 301 301 301 301 301 301 301 301 301 301 301 301 301 301 301 301 301 301 301 301 301 301 301 301 301 301 301 301 301 301 301 301 301 301 301 301 301 301 301 301 301 301 301 301 301 301 301 301 301 301 301 301 301 301 301 301 301 301 301 301 301 301 301 301 301 301 301 301 301 301 301 301 301 301 301 301 301 301 301 301 301 301 301 301 301 301 301 301 301 301 301 301 301 301 301 301 301 301 301 301 301 301 301 301 301 301 301 301 301 301 301 301 301 301 301 301 301 301 301 301 301 301 301 301 301 301 301 301 301 301 301 301 301 301 301 301 301 301 301 301 301 301 301 301 301 301 301 301 301 301 301 301 301 301 301 301 301 301 301 301 301 301 301 301 301 301 301 301 301 301 301 301 301 301 301 301 301 301 301 301 301 301 301 301 301 301 301 301 301 301 301 301 301 301 301 301 301 301 301 301 301 301 301 301 301 301 301 301 301 301 301 301 301 301 301 301 301 301 301 301 301 301 301 301 301 301 301 301 301 301 301 301 301 301 301 301 301 301 301 301 301 301 301 301 301 301 301 301 301 301 301 301 301 301 301 301 301 301 301 301 301 301 301 301 301 301 301 301 301 301 301 301 301 301 301 301 301 301 301 301 301 301 301 301 301 301 301 301 301 301 301 301 301 301 301 301 301 301 301 301 301 301 301 301 301 301 301 301 301 301 301 301 301 301 301 301 301 301 301 301 301 301 301 301 301 301 301 301 301 301 301 301 301 301 301 301 301 301 301 301 301 301 301 301 301 301 301 301 301 301 301 301 301 301 301 301 301 301 301 301 301 301 301 301 301 301 301 301 301 301 301 301 301 301 301 301 301 301 301 301 301 301 301 301 301 301 301 301 301 301 301 301 301 301 301 301 301 301 301 301 301 301 301 301 301 301 301 301 301 301 301 301 301 301 301 301 301 301 301 301 301 301 301 301 301 301 301 301 301 301 301 301 301 301 301 301 301 301 301 301 301 301 301 301 301 301 301 301 301 301 301 301 301 301 301 301 301 301 301 301 301 301 301 301 301 301 301 301 301 301 301 301 301 301 301 301 301 301 301 301 301 301 301 301 301 301 301 301 301 301 301 301 301 301 301 301 301 301 301 301 301 301 301 301 301 301 301 301 301 301 301 301 301 301 301 301 301 301 301 301 301 301 301 301 301 301 301 301 301 301 301 301 301 301 301 301 301 301 301 301 301 301 301 301 301 301 301 301 301 301 301 301 301 301 301 301 301 301 301 301 301 301 301 301 301 301 301 301 301 301 301 301 301 301 301 301 301 301 301 301 301 301 301 301 301 301 301 301 301 301 301 301 301 301 301 301 301 301 301 301 301 301 301 301 301 301 301 301 301 301 301 301 301 301 301 301 301 301 301 301 301 301 301 301 301 301 301 301 301 301 301 301 301 301 301 301 301 301 301 301 301 301 301 301 301 301 301 301 301 301 301 301 301 301 301 301 301 301 301 301 301 301 301 301 301 301 301 301 301 301 301 301 301 301 301 301 301 301 301 301 301 301 301 301 301 301 301 301 301 301 301 301 301 301 301 301 301 301 301 301 301 301 301 301 301 301 301 301 301 301 301 301 301 301 301 301 301 301 301 301 301 301 301 301 301 301 301 301 301 301 301 301 301 301 301 301 301 301 301 301 301 301 301 301 301 301 301 301 301 301 301 301 301 301 301 301 301 301 301 301 301 301 301 301 301 301 301 301 301 301 301 301 301 301 301 301 301 301 301 301 301 301 301 301 301 301 301 301 301 301 301 301 301 301 301 301 301 301 301 301 301 301 301 301 301 301 301 301 301 301 301 301 301 301 301 301 301 301 301 301 301 301 301 301 301 301 301 301 301 301 301 301 301 301 301 301 301 301 301 301 301 301 301 301 301 301 301 301 301 301 301 301 301 301 301 301 301 301 301 301 301 301 301 301 301 301 301 301 301 301 301 301 301 301 301 301 301 301 301 301 301 301 301 301 301 301 301 301 301 301 301 301 301 301 301 301 301 301 301 301 301 301 301 301 301 301 301 301 301 301 301 301 301 301 301 301 301 301 301 301 301 301 301 301 301 301 301 301 301 301 301 301 301 301 301 301 301 301 301 301 301 301 301 301 301 301 301 301 301 301 301 301 301 301 301 301 301 301 301 301 301 301 301 301 301 301 301 301 301 301 301 301 301 301 301 301 301 301 301 301 301 301 301 301 301 301 301 301 301 301 301 301 301 301 301 301 301 301 301 301 301 301 301 301 301 301 301 301 301 301 301 301 301 301 301 301 301 301 301 301 301 301 301 301 301 301 301 301 301 301 301 301 301 301 301 301 301 301 301 301 301 301 301 301 301 301 301 301 301 301 301 301 301 301 301 301 301 301 301 301 301 301 301 301 301 301 301 301 301 301 301 301 301 301 301 301 301 301 301 301 301 301 301 301 301 301 301 301 301 301 301 301 301 301 301 301 301 301 301 301 301 301 301 301 301 301 301 301 301 301 301 301 301 301 301 301 301 301 301 301 301 301 301 301 301 301 301 301 301 301 301 301 301 301 301 301 301 301 301 301 301 301 301 301 301 301 301 301 301 301 301 301 301 301 301 301 301 301 301 301 301 301 301 301 301 301 301 301 301 301 301 301 301 301 301 301 301 301 301 301 301 301 301 301 301 301 301 301 301 301 301 301 301 301 301 301 301 301 301 301 301 301 301 301 301 301 301 301 301 301 301 301 301 301 301 301 301 301 301 301 301 301 301 301 301 301 301 301 301 301 301 301 301 301 301 301 301 301 301 301 301 301 301 301 301 301 301 301 301 301 301 301 301 301 301 301 301 301 301 301 301 301 301 301 301 301 301 301 301 301 301 301 301 301 301 301 301 301 301 301 301 301 301 301 301 301 301 301 301 301 301 301 301 301 301 301 301 301 301 301 301 301 301 301 301 301 301 301 301 301 301 301 301 301 301 301 301 301 301 301 301 301 301 301 301 301 301 301 301 301 301 301 301 301 301 301 301 301 301 301 301 301 301 301 301 301 301 301 301 301 301 301 301 301 301 301 301 301 301 301 301 301 301 301 301 301 301 301 301 301 301 301 301 301 301 301 301 301 301 301 301 301 301 301 301 301 301 301 301 301 301 301 301 301 301 301 301 301 301 301 301 301 301 301 301 301 301 301 301 301 301 301 301 301 301 301 301 301 301 301 301 301 301 301 301 301 301 301 301 301 301 301 301 301 301 301 301 301 301 301 301 301 301 301 301 301 301 301 301 301 301 301 301 301 301 301 301 301 301 301 301 301 301 301 301 301 301 301 301 301 301 301 301 301 301 301 301 301 301 301 301 301 301 301 301 301 301 301 301 301 301 301 301 301 301 301 301 301 301 301 301 301 301 301 301 301 301 301 301 301 301 301 301 301 301 301 301 301 301 301 301 301 301 301 301 301 301 301 301 301 301 301 301 301 301 301 301 301 301 301 301 301 301 301 301 301 301 301 301 301 301 301 301 301 301 301 301 301 301 301 301 301 301 301 301 301 301 301 301 301 301 301 301 301 301 301 301 301 301 301 301 301 301 301 301 301 301 301 301 301 301 301 301 301 301 301 301 301 301 301 301 301 301 301 301 301 301 301 301 301 301 301 301 301 301 301 301 301 301 301 301 301 301 301 301 301 301 301 301 301 301 301 301 301 301 301 301 301 301 301 301 301 301 301 301 301 301 301 301 301 301 301 301 301 301 301 301 301 301 301 301 301 301 301 301 301 301 301 301 301 301 301 301 301 301 301 301 301 301 301 301 301 301 301 301 301 301 301 301 301 301 301 301 301 301 301 301 301 301 301 301 301 301 301 301 301 301 301 301 301 301 301 301 301 301 301 301 301 301 301 301 301 301 301 301 301 301 301 301 301 301 301 301 301 301 301 301 301 301 301 301 301 301 301 301 301 301 301 301 301 301 301 301 301 301 301 301 301 301 301 301 301 301 301 301 301 301 301 301 301 301 301 301 301 301 301 301 301 301 301 301 301 301 301 301 301 301 301 301 301 301 301 301 301 301 301 301 301 301 301 301 301 301 301 301 301 301 301 301 301 301 301 301 301 301 301 301 301 301 301 301 301 301 301 301 301 301 301 301 301 301 301 301 301 301 301 301 301 301 301 301 301 301 301 301 301 301 301 301 301 301 301 301 301 301 301 301 301 301 301 301 301 301 301 301 301 301 301 301 301 301 301 301 301 301 301 301 301 301 301 301 301 301 301 301 301 301 301 301 301 301 301 301 301 301 301 301 301 301 301 301 301 301 301 301 301 301 301 301 301 301 301 301 301 301 301 301 301 301 301 301 301 301 301 301 301 301 301 301 301 301 301 301 301 301 301 301 301 301 301 301 301 301 301 301 301 301 301 301 301 301 301 301 301 301 301 301 301 301 301 301 301 301 301 301 301 301 301 301 301 301 301 301 301 301 301 301 301 301 301 301 301 301 301 301 301 301 301 301 301 301 301 301 301 301 301 301 301 301 301 301 301 301 301 301 301 301 301 301 301 301 301 301 301 301 301 301 301 301 301 301 301 301 301 301 301 301 301 301 301 301 301 301 301 301 301 301 301 301 301 301 301 301 301 301 301 301 301 301 301 301 301 301 301 301 301 301 301 301 301 301 301 301 301 301 301 301 301 301 301 301 301 301 301 301 301 301 301 301 301 301 301 301 301 301 301 301 301 301 301 301 301 301 301 301 301 301 301 301 301 301 301 301 301 301 301 301 301 301 301 301 301 301 301 301 301 301 301 301 301 301 301 301 301 301 301 301 301 301 301 301 301 301 301 301 301 301 301 301 301 301 301 301 301 301 301 301 301 301 301 301 301 301 301 301 301 301 301 301 301 301 301 301 301 301 301 301 301 301 301 301 301 301 301 301 301 301 301 301 301 301 301 301 301 301 301 301 301 301 301 301 301 301 301 301 301 301 301 301 301 301 301 301 301 301 301 301 301 301 301 301 301 301 301 301 301 301 301 301 301 301 301 301 301 301 301 301 301 301 301 301 301 301 301 301 301 301 301 301 301 301 301 301 301 301 301 301 301 301 301 301 301 301 301 301 301 301 301 301 301 301 301 301 301 301 301 301 301 301 301 301 301 301 301 301 301 301 301 301 301 301 301 301 301 301 301 301 301 301 301 301 301 301 301 301 301 301 301 301 301 301 301 301 301 301 301 301 301 301 301 301 301 301 301 301 301 301 301 301 301 