# vtk DataFile Version 4.2
written by meshio v4.4.6
ASCII
DATASET UNSTRUCTURED_GRID
POINTS 16543 double
0.0 0.0 0.0 0.0 25.0 0.0 0.0 -25.0 0.0 0.5034263316360015 24.99493072462125 0.0 1.006648502735369 24.97972495428924 0.0 1.50946243555714 24.95438885558294 0.0 2.011664217918156 24.91893270335525 0.0 2.513050185887933 24.87337087656614 0.0 3.01341700638308 24.81772185245135 0.0 3.512561759627319 24.7520081990291 0.0 4.010282021444005 24.67625656594782 0.0 4.50637594534764 24.59049767367859 0.0 5.000642344401105 24.4947663010567 0.0 5.492880772805441 24.38910127117734 0.0 5.982891607188956 24.2735454356513 0.0 6.470476127563028 24.14814565722671 0.0 6.955436597911323 24.01295279078431 0.0 7.43757634638008 23.86802166271364 0.0 7.916699845036815 23.71341104867864 0.0 8.39261278916512 23.54918364978162 0.0 8.86512217606341 23.37540606713536 0.0 9.334036383315542 23.19214877485357 0.0 9.799165246501891 22.9994860914706 0.0 10.26032013631893 22.79749614980225 0.0 10.71731403507636 22.58626086525955 0.0 11.16996161254065 22.36586590262868 0.0 11.61807930109424 22.13640064133023 0.0 12.06148537017986 21.89795813917218 0.0 12.50000000000002 21.65063509461095 0.0 12.93344535444144 21.39453180753618 0.0 13.36164565319505 21.12975213859486 0.0 13.78442724304231 20.85640346707152 0.0 14.20161866827891 20.5745966473414 0.0 14.61305074024725 20.2844459639143 0.0 15.0185566059495 19.98606908508751 0.0 15.4179718157136 19.67958701522624 0.0 15.81113438988445 19.36512404569135 0.0 16.19788488451349 19.04280770443396 0.0 16.5780664560199 18.71276870427751 0.0 16.95152492479729 18.3751408899082 0.0 17.31810883774002 18.03006118359533 0.0 17.67766952966372 17.67766952966366 0.0 18.03006118359539 17.31810883773996 0.0 18.37514088990824 16.95152492479724 0.0 18.71276870427755 16.57806645601985 0.0 19.042807704434 16.19788488451345 0.0 19.36512404569138 15.81113438988441 0.0 19.67958701522627 15.41797181571356 0.0 19.98606908508756 15.01855660594944 0.0 20.28444596391435 14.61305074024719 0.0 20.57459664734143 14.20161866827886 0.0 20.85640346707156 13.78442724304226 0.0 21.12975213859489 13.361645653195 0.0 21.3945318075362 12.93344535444139 0.0 21.65063509461098 12.49999999999997 0.0 21.89795813917221 12.06148537017981 0.0 22.13640064133027 11.61807930109417 0.0 22.36586590262871 11.1699616125406 0.0 22.58626086525958 10.71731403507631 0.0 22.79749614980227 10.26032013631888 0.0 22.99948609147062 9.79916524650184 0.0 23.19214877485359 9.33403638331549 0.0 23.37540606713538 8.865122176063357 0.0 23.54918364978163 8.39261278916509 0.0 23.71341104867865 7.916699845036783 0.0 23.86802166271365 7.437576346380046 0.0 24.01295279078431 6.955436597911291 0.0 24.14814565722671 6.470476127562996 0.0 24.27354543565131 5.982891607188924 0.0 24.38910127117735 5.492880772805408 0.0 24.4947663010567 5.000642344401094 0.0 24.59049767367859 4.506375945347607 0.0 24.67625656594783 4.010282021443972 0.0 24.75200819902911 3.512561759627285 0.0 24.81772185245135 3.013417006383047 0.0 24.87337087656614 2.513050185887899 0.0 24.91893270335525 2.011664217918122 0.0 24.95438885558294 1.509462435557128 0.0 24.97972495428924 1.006648502735358 0.0 24.99493072462125 0.5034263316359899 0.0 25.0 -3.828568698926949e-14 0.0 24.99493072462125 -0.5034263316360443 0.0 24.97972495428924 -1.00664850273539 0.0 24.95438885558293 -1.509462435557183 0.0 24.91893270335525 -2.011664217918176 0.0 24.87337087656613 -2.513050185887953 0.0 24.81772185245135 -3.013417006383101 0.0 24.7520081990291 -3.51256175962734 0.0 24.67625656594782 -4.010282021444025 0.0 24.59049767367858 -4.506375945347661 0.0 24.49476630105669 -5.000642344401126 0.0 24.38910127117734 -5.492880772805439 0.0 24.2735454356513 -5.982891607188955 0.0 24.1481456572267 -6.470476127563049 0.0 24.0129527907843 -6.955436597911343 0.0 23.86802166271363 -7.4375763463801 0.0 23.71341104867863 -7.916699845036836 0.0 23.54918364978161 -8.39261278916514 0.0 23.37540606713536 -8.865122176063409 0.0 23.19214877485357 -9.33403638331554 0.0 22.9994860914706 -9.79916524650189 0.0 22.79749614980225 -10.26032013631893 0.0 22.58626086525955 -10.71731403507636 0.0 22.36586590262868 -11.16996161254065 0.0 22.13640064133024 -11.61807930109422 0.0 21.89795813917219 -12.06148537017984 0.0 21.65063509461095 -12.50000000000002 0.0 21.39453180753618 -12.93344535444144 0.0 21.12975213859486 -13.36164565319504 0.0 20.85640346707152 -13.78442724304231 0.0 20.5745966473414 -14.20161866827891 0.0 20.28444596391432 -14.61305074024723 0.0 19.98606908508753 -15.01855660594948 0.0 19.67958701522625 -15.41797181571358 0.0 19.36512404569136 -15.81113438988443 0.0 19.04280770443398 -16.19788488451347 0.0 18.71276870427753 -16.57806645601988 0.0 18.37514088990822 -16.95152492479727 0.0 18.03006118359537 -17.31810883773998 0.0 17.67766952966368 -17.6776695296637 0.0 17.31810883773998 -18.03006118359537 0.0 16.95152492479727 -18.37514088990822 0.0 16.57806645601988 -18.71276870427753 0.0 16.19788488451346 -19.04280770443398 0.0 15.81113438988443 -19.36512404569137 0.0 15.41797181571357 -19.67958701522625 0.0 15.01855660594947 -19.98606908508753 0.0 14.61305074024722 -20.28444596391433 0.0 14.2016186682789 -20.57459664734141 0.0 13.78442724304228 -20.85640346707154 0.0 13.36164565319502 -21.12975213859488 0.0 12.93344535444141 -21.39453180753619 0.0 12.49999999999999 -21.65063509461097 0.0 12.06148537017983 -21.8979581391722 0.0 11.61807930109421 -22.13640064133025 0.0 11.16996161254064 -22.36586590262868 0.0 10.71731403507636 -22.58626086525955 0.0 10.26032013631892 -22.79749614980225 0.0 9.799165246501882 -22.9994860914706 0.0 9.334036383315532 -23.19214877485357 0.0 8.8651221760634 -23.37540606713537 0.0 8.392612789165133 -23.54918364978161 0.0 7.916699845036828 -23.71341104867863 0.0 7.437576346380091 -23.86802166271363 0.0 6.955436597911335 -24.0129527907843 0.0 6.470476127563018 -24.14814565722671 0.0 5.982891607188947 -24.2735454356513 0.0 5.492880772805431 -24.38910127117735 0.0 5.000642344401117 -24.49476630105669 0.0 4.506375945347652 -24.59049767367859 0.0 4.010282021444017 -24.67625656594782 0.0 3.512561759627332 -24.7520081990291 0.0 3.01341700638307 -24.81772185245135 0.0 2.513050185887945 -24.87337087656614 0.0 2.011664217918168 -24.91893270335525 0.0 1.509462435557152 -24.95438885558294 0.0 1.006648502735382 -24.97972495428924 0.0 0.5034263316360137 -24.99493072462125 0.0 0.0 24.50477478162582 0.0 0.0 24.01837843133225 0.0 0.0 23.54065355673528 0.0 0.0 23.07144560359215 0.0 0.0 22.6106029515509 0.0 0.0 22.15797608095715 0.0 0.0 21.71341871965015 0.0 0.0 21.2767867787683 0.0 0.0 20.84793948648176 0.0 0.0 20.42673747781604 0.0 0.0 20.01304478110904 0.0 0.0 19.60672748842804 0.0 0.0 19.20765401408795 0.0 0.0 18.81569534518841 0.0 0.0 18.43072451131276 0.0 0.0 18.05261698628335 0.0 0.0 17.68125038182536 0.0 0.0 17.31650456884135 0.0 0.0 16.95826145486592 0.0 0.0 16.60640519394579 0.0 0.0 16.26082182932226 0.0 0.0 15.92139953785937 0.0 0.0 15.5880285311323 0.0 0.0 15.26060093751311 0.0 0.0 14.93901070561943 0.0 0.0 14.62315384783814 0.0 0.0 14.31292807209879 0.0 0.0 14.00823310616198 0.0 0.0 13.708970234443 0.0 0.0 13.41504266580481 0.0 0.0 13.1263552847583 0.0 0.0 12.84281465131291 0.0 0.0 12.56432895564399 0.0 0.0 12.29080823157818 0.0 0.0 12.02216381216908 0.0 0.0 11.75830874983339 0.0 0.0 11.49915779112593 0.0 0.0 11.24462706518212 0.0 0.0 10.99463407090822 0.0 0.0 10.74909798704339 0.0 0.0 10.507939345955 0.0 0.0 10.27108012980635 0.0 0.0 10.03844365079292 0.0 0.0 9.809954642497992 0.0 0.0 9.585539068179271 0.0 0.0 9.365124551590446 0.0 0.0 9.148639532368458 0.0 0.0 8.936014040428969 0.0 0.0 8.727179236074257 0.0 0.0 8.52206756455195 0.0 0.0 8.320612667119395 0.0 0.0 8.122749354900428 0.0 0.0 7.928413529332268 0.0 0.0 7.737542372225345 0.0 0.0 7.550074068846509 0.0 0.0 7.365948005412051 0.0 0.0 7.185104528562132 0.0 0.0 7.007485171268343 0.0 0.0 6.833032400656197 0.0 0.0 6.661689820466105 0.0 0.0 6.4934019581396 0.0 0.0 6.328114327266153 0.0 0.0 6.165773474683597 0.0 0.0 6.006326859478449 0.0 0.0 5.849722870395816 0.0 0.0 5.695910818865059 0.0 0.0 5.544840960527864 0.0 0.0 5.396464408779639 0.0 0.0 5.250733095846559 0.0 0.0 5.107599931159946 0.0 0.0 4.967018534875844 0.0 0.0 4.828943458101829 0.0 0.0 4.693329980196062 0.0 0.0 4.560134260294156 0.0 0.0 4.429313139014344 0.0 0.0 4.300824337618344 0.0 0.0 4.174626213068898 0.0 0.0 4.05067800620801 0.0 0.0 3.928939521749442 0.0 0.0 3.809371447690026 0.0 0.0 3.691935022896022 0.0 0.0 3.576592230505305 0.0 0.0 3.463305848825968 0.0 0.0 3.352039112447272 0.0 0.0 3.242756055037109 0.0 0.0 3.13542131189778 0.0 0.0 3.030000128839692 0.0 0.0 2.926458417208387 0.0 0.0 2.82476266589649 0.0 0.0 2.724879954063784 0.0 0.0 2.62677795067119 0.0 0.0 2.530424942406796 0.0 0.0 2.435789716971012 0.0 0.0 2.342841653804566 0.0 0.0 2.251550681781826 0.0 0.0 2.161887262879873 0.0 0.0 2.073822363063726 0.0 0.0 1.987327497129748 0.0 0.0 1.902374679139896 0.0 0.0 1.818936393626363 0.0 0.0 1.73698567096697 0.0 0.0 1.656495965134742 0.0 0.0 1.577441247200099 0.0 0.0 1.499795914139238 0.0 0.0 1.423534854656257 0.0 0.0 1.348633394352632 0.0 0.0 1.275067277304519 0.0 0.0 1.20281271118375 0.0 0.0 1.13184630359639 0.0 0.0 1.062145084981157 0.0 0.0 0.9936865230148406 0.0 0.0 0.9264484377945266 0.0 0.0 0.8604090805500029 0.0 0.0 0.7955470833272997 0.0 0.0 0.7318414514999887 0.0 0.0 0.6692715710945869 0.0 0.0 0.6078171976304318 0.0 0.0 0.5474584384633978 0.0 0.0 0.4881757483623197 0.0 0.0 0.4299499792334132 0.0 0.0 0.3727622537995785 0.0 0.0 0.3165940582750082 0.0 0.0 0.2614272730348191 0.0 0.0 0.2072439901680632 0.0 0.0 0.1540266795046605 0.0 0.0 0.1017581395988536 0.0 0.0 0.05042145312962276 0.0 0.0 -0.0504214531296216 0.0 0.0 -0.1017581395988503 0.0 0.0 -0.1540266795046587 0.0 0.0 -0.2072439901680595 0.0 0.0 -0.2614272730348176 0.0 0.0 -0.3165940582750051 0.0 0.0 -0.3727622537995722 0.0 0.0 -0.4299499792334089 0.0 0.0 -0.4881757483623171 0.0 0.0 -0.5474584384633979 0.0 0.0 -0.6078171976304276 0.0 0.0 -0.6692715710945836
[...]
POINT_DATA 16543
FIELD FieldData 1
node_groups 1 16543 long
0 201 201 201 201 201 201 201 201 201 201 201 201 201 201 201 201 201 201 201 201 201 201 201 201 201 201 201 201 201 201 201 201 201 201 201 201 201 201 201 201 201 201 201 201 201 201 201 201 201 201 201 201 201 201 201 201 201 201 201 201 201 201 201 201 201 201 201 201 201 201 201 201 201 201 201 201 201 201 201 201 201 201 201 201 201 201 201 201 201 201 201 201 201 201 201 201 201 201 201 201 201 201 201 201 201 201 201 201 201 201 201 201 201 201 201 201 201 201 201 201 201 201 201 201 201 201 201 201 201 201 201 201 201 201 201 201 201 201 201 201 201 201 201 201 201 201 201 201 201 201 201 201 201 201 201 201 201 303 303 303 303 303 303 303 303 303 303 303 303 303 303 303 303 303 303 303 303 303 303 303 303 303 303 303 303 303 303 303 303 303 303 303 303 303 303 303 303 303 303 303 303 303 303 303 303 303 303 303 303 303 303 303 303 303 303 303 303 303 303 303 303 303 303 303 303 303 303 303 303 303 303 303 303 303 303 303 303 303 303 303 303 303 303 303 303 303 303 303 303 303 303 303 303 303 303 303 303 303 303 303 303 303 303 303 303 303 303 303 303 303 303 303 303 303 303 303 303 303 303 303 303 303 303 303 303 303 303 303 303 303 303 303 303 303 303 303 303 303 303 303 303 303 303 303 303 303 303 303 303 303 303 303 303 303 303 303 303 303 303 303 303 303 303 303 303 303 303 303 303 303 303 303 303 303 303 303 303 303 303 303 303 303 303 303 303 303 303 303 303 303 303 303 303 303 303 303 303 303 303 303 303 303 303 303 303 303 303 303 303 303 303 303 303 303 303 303 303 303 303 303 303 303 303 303 303 303 303 303 303 303 303 303 303 303 303 303 303 303 303 303 303 303 303 303 303 303 303 303 303 303 303 303 303 303 303 303 303 303 303 303 303 303 303 303 303 303 303 303 303 303 303 303 303 303 303 303 303 303 303 303 303 303 303 303 303 303 303 303 303 303 303 303 303 303 303 303 303 303 303 303 303 303 303 303 303 303 303 303 303 303 303 303 303 303 303 303 303 303 303 303 303 303 303 303 303 303 303 303 303 303 303 303 303 303 303 303 303 303 303 303 303 303 303 303 303 303 303 303 303 303 303 303 303 303 303 303 303 303 303 303 303 303 303 303 303 303 303 303 303 303 303 303 303 303 303 303 303 303 303 303 303 303 303 303 303 303 303 303 303 303 303 303 303 303 303 303 303 303 303 303 303 303 303 303 303 303 303 303 303 303 303 303 303 303 303 303 303 303 303 303 303 303 303 303 303 303 303 303 303 303 303 303 303 303 303 303 303 303 303 303 303 303 303 303 303 303 303 303 303 303 303 303 303 303 303 303 303 303 303 303 303 303 303 303 303 303 303 303 303 303 303 303 303 303 303 303 303 303 303 303 303 303 303 303 303 303 303 303 303 303 303 303 303 303 303 303 303 303 303 303 303 303 303 303 303 303 303 303 303 303 303 303 303 303 303 303 303 303 303 303 303 303 303 303 303 303 303 303 303 303 303 303 303 303 303 303 303 303 303 303 303 303 303 303 303 303 303 303 303 303 303 303 303 303 303 303 303 303 303 303 303 303 303 303 303 303 303 303 303 303 303 303 303 303 303 303 303 303 303 303 303 303 303 303 303 303 303 303 303 303 303 303 303 303 303 303 303 303 303 303 303 303 303 303 303 303 303 303 303 303 303 303 303 303 303 303 303 303 303 303 303 303 303 303 303 303 303 303 303 303 303 303 303 303 303 303 303 303 303 303 303 303 303 303 303 303 303 303 303 303 303 303 303 303 303 303 303 303 303 303 303 303 303 303 303 303 303 303 303 303 303 303 303 303 303 303 303 303 303 303 303 303 303 303 303 303 303 303 303 303 303 303 303 303 303 303 303 303 303 303 303 303 303 303 303 303 303 303 303 303 303 303 303 303 303 303 303 303 303 303 303 303 303 303 303 303 303 303 303 303 303 303 303 303 303 303 303 303 303 303 303 303 303 303 303 303 303 303 303 303 303 303 303 303 303 303 303 303 303 303 303 303 303 303 303 303 303 303 303 303 303 303 303 303 303 303 303 303 303 303 303 303 303 303 303 303 303 303 303 303 303 303 303 303 303 303 303 303 303 303 303 303 303 303 303 303 303 303 303 303 303 303 303 303 303 303 303 303 303 303 303 303 303 303 303 303 303 303 303 303 303 303 303 303 303 303 303 303 303 303 303 303 303 303 303 303 303 303 303 303 303 303 303 303 303 303 303 303 303 303 303 303 303 303 303 303 303 303 303 303 303 303 303 303 303 303 303 303 303 303 303 303 303 303 303 303 303 303 303 303 303 303 303 303 303 303 303 303 303 303 303 303 303 303 303 303 303 303 303 303 303 303 303 303 303 303 303 303 303 303 303 303 303 303 303 303 303 303 303 303 303 303 303 303 303 303 303 303 303 303 303 303 303 303 303 303 303 303 303 303 303 303 303 303 303 303 303 303 303 303 303 303 303 303 303 303 303 303 303 303 303 303 303 303 303 303 303 303 303 303 303 303 303 303 303 303 303 303 303 303 303 303 303 303 303 303 303 303 303 303 303 303 303 303 303 303 303 303 303 303 303 303 303 303 303 303 303 303 303 303 303 303 303 303 303 303 303 303 303 303 303 303 303 303 303 303 303 303 303 303 303 303 303 303 303 303 303 303 303 303 303 303 303 303 303 303 303 303 303 303 303 303 303 303 303 303 303 303 303 303 303 303 303 303 303 303 303 303 303 303 303 303 303 303 303 303 303 303 303 303 303 303 303 303 303 303 303 303 303 303 303 303 303 303 303 303 303 303 303 303 303 303 303 303 303 303 303 303 303 303 303 303 303 303 303 303 303 303 303 303 303 303 303 303 303 303 303 303 303 303 303 303 303 303 303 303 303 303 303 303 303 303 303 303 303 303 303 303 303 303 303 303 303 303 303 303 303 303 303 303 303 303 303 303 303 303 303 303 303 303 303 303 303 303 303 303 303 303 303 303 303 303 303 303 303 303 303 303 303 303 303 303 303 303 303 303 303 303 303 303 303 303 303 303 303 303 303 303 303 303 303 303 303 303 303 303 303 303 303 303 303 303 303 303 303 303 303 303 303 303 303 303 303 303 303 303 303 303 303 303 303 303 303 303 303 303 303 303 303 303 303 303 303 303 303 303 303 303 303 303 303 303 303 303 303 303 303 303 303 303 303 303 303 303 303 303 303 303 303 303 303 303 303 303 303 303 303 303 303 303 303 303 303 303 303 303 303 303 303 303 303 303 303 303 303 303 303 303 303 303 303 303 303 303 303 303 303 303 303 303 303 303 303 303 303 303 303 303 303 303 303 303 303 303 303 303 303 303 303 303 303 303 303 303 303 303 303 303 303 303 303 303 303 303 303 303 303 303 303 303 303 303 303 303 303 303 303 303 303 303 303 303 303 303 303 303 303 303 303 303 303 303 303 303 303 303 303 303 303 303 303 303 303 303 303 303 303 303 303 303 303 303 303 303 303 303 303 303 303 303 303 303 303 303 303 303 303 303 303 303 303 303 303 303 303 303 303 303 303 303 303 303 303 303 303 303 303 303 303 303 303 303 303 303 303 303 303 303 303 303 303 303 303 303 303 303 303 303 303 303 303 303 303 303 303 303 303 303 303 303 303 303 303 303 303 303 303 303 303 303 303 303 303 303 303 303 303 303 303 303 303 303 303 303 303 303 303 303 303 303 303 303 303 303 303 303 303 303 303 303 303 303 303 303 303 303 303 303 303 303 303 303 303 303 303 303 303 303 303 303 303 303 303 303 303 303 303 303 303 303 303 303 303 303 303 303 303 303 303 303 303 303 303 303 303 303 303 303 303 303 303 303 303 303 303 303 303 303 303 303 303 303 303 303 303 303 303 303 303 303 303 303 303 303 303 303 303 303 303 303 303 303 303 303 303 303 303 303 303 303 303 303 303 303 303 303 303 303 303 303 303 303 303 303 303 303 303 303 303 303 303 303 303 303 303 303 303 303 303 303 303 303 303 303 303 303 303 303 303 303 303 303 303 303 303 303 303 303 303 303 303 303 303 303 303 303 303 303 303 303 303 303 303 303 303 303 303 303 303 303 303 303 303 303 303 303 303 303 303 303 303 303 303 303 303 303 303 303 303 303 303 303 303 303 303 303 303 303 303 303 303 303 303 303 303 303 303 303 303 303 303 303 303 303 303 303 303 303 303 303 303 303 303 303 303 303 303 303 303 303 303 303 303 303 303 303 303 303 303 303 303 303 303 303 303 303 303 303 303 303 303 303 303 303 303 303 303 303 303 303 303 303 303 303 303 303 303 303 303 303 303 303 303 303 303 303 303 303 303 303 303 303 303 303 303 303 303 303 303 303 303 303 303 303 303 303 303 303 303 303 303 303 303 303 303 303 303 303 303 303 303 303 303 303 303 303 303 303 303 303 303 303 303 303 303 303 303 303 303 303 303 303 303 303 303 303 303 303 303 303 303 303 303 303 303 303 303 303 303 303 303 303 303 303 303 303 303 303 303 303 303 303 303 303 303 303 303 303 303 303 303 303 303 303 303 303 303 303 303 303 303 303 303 303 303 303 303 303 303 303 303 303 303 303 303 303 303 303 303 303 303 303 303 303 303 303 303 303 303 303 303 303 303 303 303 303 303 303 303 303 303 303 303 303 303 303 303 303 303 303 303 303 303 303 303 303 303 303 303 303 303 303 303 303 303 303 303 303 303 303 303 303 303 303 303 303 303 303 303 303 303 303 303 303 303 303 303 303 303 303 303 303 303 303 303 303 303 303 303 303 303 303 303 303 303 303 303 303 303 303 303 303 303 303 303 303 303 303 303 303 303 303 303 303 303 303 303 303 303 303 303 303 303 303 303 303 303 303 303 303 303 303 303 303 303 303 303 303 303 303 303 303 303 303 303 303 303 303 303 303 303 303 303 303 303 303 303 303 303 303 303 303 303 303 303 303 303 303 303 303 303 303 303 303 303 303 303 303 303 303 303 303 303 303 303 303 303 303 303 303 303 303 303 303 303 303 303 303 303 303 303 303 303 303 303 303 303 303 303 303 303 303 303 303 303 303 303 303 303 303 303 303 303 303 303 303 303 303 303 303 303 303 303 303 303 303 303 303 303 303 303 303 303 303 303 303 303 303 303 303 303 303 303 303 303 303 303 303 303 303 303 303 303 303 303 303 303 303 303 303 303 303 303 303 303 303 303 303 303 303 303 303 303 303 303 303 303 303 303 303 303 303 303 303 303 303 303 303 303 303 303 303 303 303 303 303 303 303 303 303 303 303 303 303 303 303 303 303 303 303 303 303 303 303 303 303 303 303 303 303 303 303 303 303 303 303 303 303 303 303 303 303 303 303 303 303 303 303 303 303 303 303 303 303 303 303 303 303 303 303 303 303 303 303 303 303 303 303 303 303 303 303 303 303 303 303 303 303 303 303 303 303 303 303 303 303 303 303 303 303 303 303 303 303 303 303 303 303 303 303 303 303 303 303 303 303 303 303 303 303 303 303 303 303 303 303 303 303 303 303 303 303 303 303 303 303 303 303 303 303 303 303 303 303 303 303 303 303 303 303 303 303 303 303 303 303 303 303 303 303 303 303 303 303 303 303 303 303 303 303 303 303 303 303 303 303 303 303 303 303 303 303 303 303 303 303 303 303 303 303 303 303 303 303 303 303 303 303 303 303 303 303 303 303 303 303 303 303 303 303 303 303 303 303 303 303 303 303 303 303 303 303 303 303 303 303 303 303 303 303 303 303 303 303 303 303 303 303 303 303 303 303 303 303 303 303 303 303 303 303 303 303 303 303 303 303 303 303 303 303 303 303 303 303 303 303 303 303 303 303 303 303 303 303 303 303 303 303 303 303 303 303 303 303 303 303 303 303 303 303 303 303 303 303 303 303 303 303 303 303 303 303 303 303 303 303 303 303 303 303 303 303 303 303 303 303 303 303 303 303 303 303 303 303 303 303 303 303 303 303 303 303 303 303 303 303 303 303 303 303 303 303 303 303 303 303 303 303 303 303 303 303 303 303 303 303 303 303 303 303 303 303 303 303 303 303 303 303 303 303 303 303 303 303 303 303 303 303 303 303 303 303 303 303 303 303 303 303 303 303 303 303 303 303 303 303 303 303 303 303 303 303 303 303 303 303 303 303 303 303 303 303 303 303 303 303 303 303 303 303 303 303 303 303 303 303 303 303 303 303 303 303 303 303 303 303 303 303 303 303 303 303 303 303 303 303 303 303 303 303 303 303 303 303 303 303 303 303 303 303 303 303 303 303 303 303 303 303 303 303 303 303 303 303 303 303 303 303 303 303 303 303 303 303 303 303 303 303 303 303 303 303 303 303 303 303 303 303 303 303 303 303 303 303 303 303 303 303 303 303 303 303 303 303 303 303 303 303 303 303 303 303 303 303 303 303 303 303 303 303 303 303 303 303 303 303 303 303 303 303 303 303 303 303 303 303 303 303 303 303 303 303 303 303 303 303 303 303 303 303 303 303 303 303 303 303 303 303 303 303 303 303 303 303 303 303 303 303 303 303 303 303 303 303 303 303 303 303 303 303 303 303 303 303 303 303 303 303 303 303 303 303 303 303 303 303 303 303 303 303 303 303 303 303 303 303 303 303 303 303 303 303 303 303 303 303 303 303 303 303 303 303 303 303 303 303 303 303 303 303 303 303 303 303 303 303 303 303 303 303 303 303 303 303 303 303 303 303 303 303 303 303 303 303 303 303 303 303 303 303 303 303 303 303 303 303 303 303 303 303 303 303 303 303 303 303 303 303 303 303 303 303 303 303 303 303 303 303 303 303 303 303 303 303 303 303 303 303 303 303 303 303 303 303 303 303 303 303 303 303 303 303 303 303 303 303 303 303 303 303 303 303 303 303 303 303 303 303 303 303 303 303 303 303 303 303 303 303 303 303 303 303 303 303 303 303 303 303 303 303 303 303 303 303 303 303 303 303 303 303 303 303 303 303 303 303 303 303 303 303 303 303 303 303 303 303 303 303 303 303 303 303 303 303 303 303 303 303 303 303 303 303 303 303 303 303 303 303 303 303 303 303 303 303 303 303 303 303 303 303 303 303 303 303 303 303 303 303 303 303 303 303 303 303 303 303 303 303 303 303 303 303 303 303 303 303 303 303 303 303 303 303 303 303 303 303 303 303 303 303 303 303 303 303 303 303 303 303 303 303 303 303 303 303 303 303 303 303 303 303 303 303 303 303 303 303 303 303 303 303 303 303 303 303 303 303 303 303 303 303 303 303 303 303 303 303 303 303 303 303 303 303 303 303 303 303 303 303 303 303 303 303 303 303 303 303 303 303 303 303 303 303 303 303 303 303 303 303 303 303 303 303 303 303 303 303 303 303 303 303 303 303 303 303 303 303 303 303 303 303 303 303 303 303 303 303 303 303 303 303 303 303 303 303 303 303 303 303 303 303 303 303 303 303 303 303 303 303 303 303 303 303 303 303 303 303 303 303 303 303 303 303 303 303 303 303 303 303 303 303 303 303 303 303 303 303 303 303 303 303 303 303 303 303 303 303 303 303 303 303 303 303 303 303 303 303 303 303 303 303 303 303 303 303 303 303 303 303 303 303 303 303 303 303 303 303 303 303 303 303 303 303 303 303 303 303 303 303 303 303 303 303 303 303 303 303 303 303 303 303 303 303 303 303 303 303 303 303 303 303 303 303 303 303 303 303 303 303 303 303 303 303 303 303 303 303 303 303 303 303 303 303 303 303 303 303 303 303 303 303 303 303 303 303 303 303 303 303 303 303 303 303 303 303 303 303 303 303 303 303 303 303 303 303 303 303 303 303 303 303 303 303 303 303 303 303 303 303 303 303 303 303 303 303 303 303 303 303 303 303 303 303 303 303 303 303 303 303 303 303 303 303 303 303 303 303 303 303 303 303 303 303 303 303 303 303 303 303 303 303 303 303 303 303 303 303 303 303 303 303 303 303 303 303 303 303 303 303 303 303 303 303 303 303 303 303 303 303 303 303 303 303 303 303 303 303 303 303 303 303 303 303 303 303 303 303 303 303 303 303 303 303 303 303 303 303 303 303 303 303 303 303 303 303 303 303 303 303 303 303 303 303 303 303 303 303 303 303 303 303 303 303 303 303 303 303 303 303 303 303 303 303 303 303 303 303 303 303 303 303 303 303 303 303 303 303 303 303 303 303 303 303 303 303 303 303 303 303 303 303 303 303 303 303 303 303 303 303 303 303 303 303 303 303 303 303 303 303 303 303 303 303 303 303 303 303 303 303 303 303 303 303 303 303 303 303 303 303 303 303 303 303 303 303 303 303 303 303 303 303 303 303 303 303 303 303 303 303 303 303 303 303 303 303 303 303 303 303 303 303 303 303 303 303 303 303 303 303 303 303 303 303 303 303 303 303 303 303 303 303 303 303 303 303 303 303 303 303 303 303 303 303 303 303 303 303 303 303 303 303 303 303 303 303 303 303 303 303 303 303 303 303 303 303 303 303 303 303 303 303 303 303 303 303 303 303 303 303 303 303 303 303 303 303 303 303 303 303 303 303 303 303 303 303 303 303 303 303 303 303 303 303 303 303 303 303 303 303 303 303 303 303 303 303 303 303 303 303 303 303 303 303 303 303 303 303 303 303 303 303 303 303 303 303 303 303 303 303 303 303 303 303 303 303 303 303 303 303 303 303 303 303 303 303 303 303 303 303 303 303 303 303 303 303 303 303 303 303 303 303 303 303 303 303 303 303 303 303 303 303 303 303 303 303 303 303 303 303 303 303 303 303 303 303 303 303 303 303 303 303 303 303 303 303 303 303 303 303 303 303 303 303 303 303 303 303 303 303 303 303 303 303 303 303 303 303 303 303 303 303 303 303 303 303 303 303 303 303 303 303 303 303 303 303 303 303 303 303 303 303 303 303 303 303 303 303 303 303 303 303 303 303 303 303 303 303 303 303 303 303 303 303 303 303 303 303 303 303 303 303 303 303 303 303 303 303 303 303 303 303 303 303 303 303 303 303 303 303 303 303 303 303 303 303 303 303 303 303 303 303 303 303 303 303 303 303 303 303 303 303 303 303 303 303 303 303 303 303 303 303 303 303 303 303 303 303 303 303 303 303 303 303 303 303 303 303 303 303 303 303 303 303 303 303 303 303 303 303 303 303 303 303 303 303 303 303 303 303 303 303 303 303 303 303 303 303 303 303 303 303 303 303 303 303 303 303 303 303 303 303 303 303 303 303 303 303 303 303 303 303 303 303 303 303 303 303 303 303 303 303 303 303 303 303 303 303 303 303 303 303 303 303 303 303 303 303 303 303 303 303 303 303 303 303 303 303 303 303 303 303 303 303 303 303 303 303 303 303 303 303 303 303 303 303 303 303 303 303 303 303 303 303 303 303 303 303 303 303 303 303 303 303 303 303 303 303 303 303 303 303 303 303 303 303 303 303 303 303 303 303 303 303 303 303 303 303 303 303 303 303 303 303 303 303 303 303 303 303 303 303 303 303 303 303 303 303 303 303 303 303 303 303 303 303 303 303 303 303 303 303 303 303 303 303 303 303 303 303 303 303 303 303 303 303 303 303 303 303 303 303 303 303 303 303 303 303 303 303 303 303 303 303 303 303 303 303 303 303 303 303 303 303 303 303 303 303 303 303 303 303 303 303 303 303 303 303 303 303 303 303 303 303 303 303 303 303 303 303 303 303 303 303 303 303 303 303 303 303 303 303 303 303 303 303 303 303 303 303 303 303 303 303 303 303 303 303 303 303 303 303 303 303 303 303 303 303 303 303 303 303 303 303 303 303 303 303 303 303 303 303 303 303 303 303 303 303 303 303 303 303 303 303 303 303 303 303 303 303 303 303 303 303 303 303 303 303 303 303 303 303 303 303 303 303 303 303 303 303 303 303 303 303 303 303 303 303 303 303 303 303 303 303 303 303 303 303 303 303 303 303 303 303 303 303 303 303 303 303 303 303 303 303 303 303 303 303 303 303 303 303 303 303 303 303 303 303 303 303 303 303 303 303 303 303 303 303 303 303 303 303 303 303 303 303 303 303 303 303 303 303 303 303 303 303 303 303 303 303 303 303 303 303 303 303 303 303 303 303 303 303 303 303 303 303 303 303 303 303 303 303 303 303 303 303 303 303 303 303 303 303 303 303 303 303 303 303 303 303 303 303 303 303 303 303 303 303 303 303 303 303 303 303 303 303 303 303 303 303 303 303 303 303 303 303 303 303 303 303 303 303 303 303 303 303 303 303 303 303 303 303 303 303 303 303 303 303 303 303 303 303 303 303 303 303 303 303 303 303 303 303 303 303 303 303 303 303 303 303 303 303 303 303 303 303 303 303 303 303 303 303 303 303 303 303 303 303 303 303 303 303 303 303 303 303 303 303 303 303 303 303 303 303 303 303 303 303 303 303 303 303 303 303 303 303 303 303 303 303 303 303 303 303 303 303 303 303 303 303 303 303 303 303 303 303 303 303 303 303 303 303 303 303 303 303 303 303 303 303 303 303 303 303 303 303 303 303 303 303 303 303 303 303 303 303 303 303 303 303 303 303 303 303 303 303 303 303 303 303 303 303 303 303 303 303 303 303 303 303 303 303 303 303 303 303 303 303 303 303 303 303 303 303 303 303 303 303 303 303 303 303 303 303 303 303 303 303 303 303 303 303 303 303 303 303 303 303 303 303 303 303 303 303 303 303 303 303 303 303 303 303 303 303 303 303 303 303 303 303 303 303 303 303 303 303 303 303 303 303 303 303 303 303 303 303 303 303 303 303 303 303 303 303 303 303 303 303 303 303 303 303 303 303 303 303 303 303 303 303 303 303 303 303 303 303 303 303 303 303 303 303 303 303 303 303 303 303 303 303 303 303 303 303 303 303 303 303 303 303 303 303 303 303 303 303 303 303 303 303 303 303 303 303 303 303 303 303 303 303 303 303 303 303 303 303 303 303 303 303 303 303 303 303 303 303 303 303 303 303 303 303 303 303 303 303 303 303 303 303 303 303 303 303 303 303 303 303 303 303 303 303 303 303 303 303 303 303 303 303 303 303 303 303 303 303 303 303 303 303 303 303 303 303 303 303 303 303 303 303 303 303 303 303 303 303 303 303 303 303 303 303 303 303 303 303 303 303 303 303 303 303 303 303 303 303 303 303 303 303 303 303 303 303 303 303 30