# vtk DataFile Version 4.2
written by meshio v4.4.6
ASCII
DATASET UNSTRUCTURED_GRID
POINTS 37917 double
0.0 0.0 0.0 0.0 26.0 0.0 0.0 -26.0 0.0 0.5041746260674231 25.99511123166104 0.0 1.008159652677241 25.98044676510998 0.0 1.511765551672373 25.95601211505297 0.0 2.0148029374702 25.92181647036259 0.0 2.517082638282646 25.87787269062231 0.0 3.018415767255993 25.82419730129051 0.0 3.51861379350341 25.76081048748598 0.0 4.017488613003848 25.68773608639703 0.0 4.514852619340179 25.60500157831741 0.0 5.010518774250339 25.512638076312 0.0 5.504300677964681 25.41068031451652 0.0 5.996012639303441 25.29916663507542 0.0 6.485469745507526 25.17813897372295 0.0 6.972487931776579 25.04764284401288 0.0 7.456884050488348 24.90772732020271 0.0 7.938475940072937 24.7584450187988 0.0 8.417082493516359 24.59985207876951 0.0 8.892523726467394 24.43200814043362 0.0 9.364620844922474 24.25497632303201 0.0 9.8331963124627 24.06882320099115 0.0 10.29807391701809 23.87361877888712 0.0 10.75907883713363 23.66943646511981 0.0 11.21603770771259 23.45635304430698 0.0 11.66877868521201 23.23444864840872 0.0 12.11713151226602 23.00380672659309 0.0 12.56092758171261 22.76451401385436 0.0 13.0 22.5166604983954 0.0 13.43418364994843 22.26033938778693 0.0 13.86331525284396 21.99564707391587 0.0 14.28723342984097 21.72268309673634 0.0 14.70577876265001 21.44155010683677 0.0 15.11879385348869 21.15235382683716 0.0 15.52612338427243 20.85520301163114 0.0 15.92761417502328 20.55020940748773 0.0 16.32311524147456 20.23748771002816 0.0 16.71247785185002 19.91715552109343 0.0 17.09555558279565 19.58933330451918 0.0 17.47220437444359 19.25414434083411 0.0 17.84228258458707 18.91171468089927 0.0 18.20565104194638 18.56217309850538 0.0 18.56217309850537 18.20565104194639 0.0 18.91171468089926 17.84228258458708 0.0 19.25414434083412 17.47220437444358 0.0 19.58933330451918 17.09555558279566 0.0 19.91715552109342 16.71247785185003 0.0 20.23748771002817 16.32311524147455 0.0 20.55020940748775 15.92761417502327 0.0 20.85520301163114 15.52612338427244 0.0 21.15235382683715 15.1187938534887 0.0 21.44155010683677 14.70577876265002 0.0 21.72268309673635 14.28723342984095 0.0 21.99564707391587 13.86331525284397 0.0 22.26033938778692 13.43418364994844 0.0 22.5166604983954 13.00000000000001 0.0 22.76451401385436 12.5609275817126 0.0 23.0038067265931 12.11713151226601 0.0 23.23444864840872 11.66877868521202 0.0 23.45635304430698 11.2160377077126 0.0 23.66943646511981 10.75907883713364 0.0 23.87361877888712 10.29807391701808 0.0 24.06882320099115 9.83319631246271 0.0 24.25497632303201 9.364620844922483 0.0 24.43200814043361 8.892523726467406 0.0 24.59985207876951 8.417082493516348 0.0 24.7584450187988 7.938475940072948 0.0 24.90772732020271 7.456884050488358 0.0 25.04764284401288 6.972487931776588 0.0 25.17813897372295 6.485469745507538 0.0 25.29916663507542 5.996012639303451 0.0 25.41068031451652 5.504300677964692 0.0 25.512638076312 5.010518774250349 0.0 25.60500157831741 4.514852619340213 0.0 25.68773608639703 4.017488613003859 0.0 25.76081048748598 3.518613793503421 0.0 25.82419730129051 3.018415767256004 0.0 25.87787269062231 2.51708263828268 0.0 25.92181647036259 2.014802937470211 0.0 25.95601211505297 1.511765551672384 0.0 25.98044676510998 1.008159652677252 0.0 25.99511123166103 0.5041746260674574 0.0 26.0 6.368163355566236e-15 0.0 25.99511123166104 -0.5041746260674216 0.0 25.98044676510998 -1.008159652677217 0.0 25.95601211505297 -1.511765551672348 0.0 25.9218164703626 -2.014802937470175 0.0 25.87787269062231 -2.517082638282645 0.0 25.82419730129052 -3.018415767255969 0.0 25.76081048748598 -3.518613793503385 0.0 25.68773608639704 -4.017488613003824 0.0 25.60500157831741 -4.514852619340178 0.0 25.512638076312 -5.010518774250315 0.0 25.41068031451653 -5.504300677964657 0.0 25.29916663507542 -5.996012639303439 0.0 25.17813897372296 -6.485469745507503 0.0 25.04764284401289 -6.972487931776556 0.0 24.90772732020272 -7.456884050488325 0.0 24.7584450187988 -7.938475940072936 0.0 24.59985207876952 -8.417082493516336 0.0 24.43200814043362 -8.89252372646737 0.0 24.25497632303202 -9.36462084492245 0.0 24.06882320099115 -9.833196312462698 0.0 23.87361877888713 -10.29807391701807 0.0 23.66943646511982 -10.7590788371336 0.0 23.45635304430699 -11.21603770771257 0.0 23.23444864840873 -11.66877868521199 0.0 23.0038067265931 -12.117131512266 0.0 22.76451401385437 -12.56092758171259 0.0 22.51666049839541 -12.99999999999998 0.0 22.26033938778694 -13.43418364994841 0.0 21.99564707391587 -13.86331525284396 0.0 21.72268309673636 -14.28723342984095 0.0 21.44155010683679 -14.70577876264998 0.0 21.15235382683717 -15.11879385348867 0.0 20.85520301163116 -15.52612338427241 0.0 20.55020940748775 -15.92761417502326 0.0 20.23748771002818 -16.32311524147455 0.0 19.91715552109345 -16.71247785185 0.0 19.5893333045192 -17.09555558279563 0.0 19.25414434083413 -17.47220437444357 0.0 18.91171468089928 -17.84228258458706 0.0 18.56217309850539 -18.20565104194636 0.0 18.20565104194639 -18.56217309850537 0.0 17.84228258458709 -18.91171468089926 0.0 17.4722043744436 -19.2541443408341 0.0 17.09555558279568 -19.58933330451916 0.0 16.71247785185003 -19.91715552109342 0.0 16.32311524147458 -20.23748771002815 0.0 15.92761417502329 -20.55020940748773 0.0 15.52612338427246 -20.85520301163112 0.0 15.1187938534887 -21.15235382683715 0.0 14.70577876265002 -21.44155010683677 0.0 14.28723342984097 -21.72268309673633 0.0 13.863315252844 -21.99564707391585 0.0 13.43418364994847 -22.26033938778691 0.0 13.00000000000001 -22.5166604983954 0.0 12.56092758171262 -22.76451401385435 0.0 12.11713151226603 -23.00380672659309 0.0 11.66877868521204 -23.2344486484087 0.0 11.2160377077126 -23.45635304430697 0.0 10.75907883713364 -23.66943646511981 0.0 10.2980739170181 -23.87361877888711 0.0 9.833196312462713 -24.06882320099115 0.0 9.364620844922506 -24.254976323032 0.0 8.892523726467406 -24.43200814043361 0.0 8.417082493516371 -24.5998520787695 0.0 7.938475940072971 -24.75844501879879 0.0 7.45688405048836 -24.90772732020271 0.0 6.97248793177659 -25.04764284401288 0.0 6.485469745507539 -25.17813897372295 0.0 5.996012639303475 -25.29916663507541 0.0 5.504300677964693 -25.41068031451652 0.0 5.010518774250351 -25.512638076312 0.0 4.514852619340215 -25.60500157831741 0.0 4.017488613003883 -25.68773608639703 0.0 3.518613793503423 -25.76081048748598 0.0 3.018415767256005 -25.82419730129051 0.0 2.517082638282682 -25.87787269062231 0.0 2.014802937470213 -25.92181647036259 0.0 1.511765551672385 -25.95601211505297 0.0 1.008159652677254 -25.98044676510998 0.0 0.504174626067459 -25.99511123166103 0.0 0.0 25.50495715972414 0.0 0.0 25.01924591412114 0.0 0.0 24.54268999588871 0.0 0.0 24.07511697440964 0.0 0.0 23.61635767100411 0.0 0.0 23.16624560312507 0.0 0.0 22.7246181689519 0.0 0.0 22.29131536461426 0.0 0.0 21.86618013883192 0.0 0.0 21.44905855205388 0.0 0.0 21.0397996297671 0.0 0.0 20.63825513427094 0.0 0.0 20.24427961712011 0.0 0.0 19.85773040797343 0.0 0.0 19.47846754065138 0.0 0.0 19.10635364003774 0.0 0.0 18.74125402168647 0.0 0.0 18.38303641852207 0.0 0.0 18.03157115424638 0.0 0.0 17.68673086525823 0.0 0.0 17.34839067482668 0.0 0.0 17.01642819055535 0.0 0.0 16.69072301371228 0.0 0.0 16.3711573293482 0.0 0.0 16.05761538666388 0.0 0.0 15.7499835943748 0.0 0.0 15.44815056228571 0.0 0.0 15.1520069408131 0.0 0.0 14.86144566629631 0.0 0.0 14.57636131128144 0.0 0.0 14.29665073332023 0.0 0.0 14.02221254602301 0.0 0.0 13.75294753888805 0.0 0.0 13.48875799572905 0.0 0.0 13.22954849149462 0.0 0.0 12.97522490937658 0.0 0.0 12.7256953101983 0.0 0.0 12.48086923876451 0.0 0.0 12.24065804403563 0.0 0.0 12.00497480815122 0.0 0.0 11.77373410104984 0.0 0.0 11.54685214321733 0.0 0.0 11.3242468965058 0.0 0.0 11.10583773804859 0.0 0.0 10.89154550410591 0.0 0.0 10.68129260534296 0.0 0.0 10.47500292365459 0.0 0.0 10.27260175474873 0.0 0.0 10.0740157689812 0.0 0.0 9.87917309088741 0.0 0.0 9.68800310714849 0.0 0.0 9.500436660354097 0.0 0.0 9.316405768071682 0.0 0.0 9.135843784491634 0.0 0.0 8.958685392318522 0.0 0.0 8.784866345153581 0.0 0.0 8.614323757952988 0.0 0.0 8.44699581758702 0.0 0.0 8.282822004111367 0.0 0.0 8.121742766356466 0.0 0.0 7.96369988141452 0.0 0.0 7.808636032494942 0.0 0.0 7.656495083547945 0.0 0.0 7.507221960263283 0.0 0.0 7.360762592764736 0.0 0.0 7.217063915660329 0.0 0.0 7.076073918608184 0.0 0.0 6.937741579642164 0.0 0.0 6.802016760604246 0.0 0.0 6.668850304622332 0.0 0.0 6.538193960678267 0.0 0.0 6.410000508913935 0.0 0.0 6.284223406654267 0.0 0.0 6.160817231751928 0.0 0.0 6.039737164173012 0.0 0.0 5.920939462755864 0.0 0.0 5.804381080132583 0.0 0.0 5.690019765598414 0.0 0.0 5.577814082001311 0.0 0.0 5.46772347445577 0.0 0.0 5.359708056748783 0.0 0.0 5.253728699647699 0.0 0.0 5.149747015276684 0.0 0.0 5.047725357706156 0.0 0.0 4.947626779594309 0.0 0.0 4.849415024619361 0.0 0.0 4.753054538269396 0.0 0.0 4.658510411989671 0.0 0.0 4.565748423579137 0.0 0.0 4.474734972331117 0.0 0.0 4.385437077394091 0.0 0.0 4.297822454767342 0.0 0.0 4.211859321709515 0.0 0.0 4.127516563849969 0.0 0.0 4.044763663750164 0.0 0.0 3.963570618721342 0.0 0.0 3.883908028939288 0.0 0.0 3.805747079211589 0.0 0.0 3.729059423308723 0.0 0.0 3.653817302421309 0.0 0.0 3.579993485622015 0.0 0.0 3.507561235592405 0.0 0.0 3.436494283844578 0.0 0.0 3.366766948285964 0.0 0.0 3.298353937482936 0.0 0.0 3.231230514182048 0.0 0.0 3.165372333074718 0.0 0.0 3.100755546438169 0.0 0.0 3.037356772328828 0.0 0.0 2.975153076863641 0.0 0.0 2.914121878623934 0.0 0.0 2.854241098897273 0.0 0.0 2.79548905561948 0.0 0.0 2.737844484903647 0.0 0.0 2.681286466851386 0.0 0.0 2.625794569570122 0.0 0.0 2.571348678753665 0.0 0.0 2.517929076024771 0.0 0.0 2.465516419447578 0.0 0.0 2.414091718257687 0.0 0.0 2.363636368652728 0.0 0.0 2.314132080041428 0.0 0.0 2.265560942495345 0.0 0.0 2.217905351035569 0.0 0.0 2.171148052719019 0.0 0.0 2.125272108898166 0.0 0.0 2.080260928592672 0.0 0.0 2.036098185473836 0.0 0.0 1.992767893789303 0.0 0.0 1.950254375909484 0.0 0.0 1.908542223695033 0.0 0.0 1.8676163
[...]
POINT_DATA 37917
FIELD FieldData 1
node_groups 1 37917 long
0 201 201 201 201 201 201 201 201 201 201 201 201 201 201 201 201 201 201 201 201 201 201 201 201 201 201 201 201 201 201 201 201 201 201 201 201 201 201 201 201 201 201 201 201 201 201 201 201 201 201 201 201 201 201 201 201 201 201 201 201 201 201 201 201 201 201 201 201 201 201 201 201 201 201 201 201 201 201 201 201 201 201 201 201 201 201 201 201 201 201 201 201 201 201 201 201 201 201 201 201 201 201 201 201 201 201 201 201 201 201 201 201 201 201 201 201 201 201 201 201 201 201 201 201 201 201 201 201 201 201 201 201 201 201 201 201 201 201 201 201 201 201 201 201 201 201 201 201 201 201 201 201 201 201 201 201 201 201 201 201 201 201 201 303 303 303 303 303 303 303 303 303 303 303 303 303 303 303 303 303 303 303 303 303 303 303 303 303 303 303 303 303 303 303 303 303 303 303 303 303 303 303 303 303 303 303 303 303 303 303 303 303 303 303 303 303 303 303 303 303 303 303 303 303 303 303 303 303 303 303 303 303 303 303 303 303 303 303 303 303 303 303 303 303 303 303 303 303 303 303 303 303 303 303 303 303 303 303 303 303 303 303 303 303 303 303 303 303 303 303 303 303 303 303 303 303 303 303 303 303 303 303 303 303 303 303 303 303 303 303 303 303 303 303 303 303 303 303 303 303 303 303 303 303 303 303 303 303 303 303 303 303 303 303 303 303 303 303 303 303 303 303 303 303 303 303 303 303 303 303 303 303 303 303 303 303 303 303 303 303 303 303 303 303 303 303 303 303 303 303 303 303 303 303 303 303 303 303 303 303 303 303 303 303 303 303 303 303 303 303 303 303 303 303 303 303 303 303 303 303 303 303 303 303 303 303 303 303 303 303 303 303 303 303 303 303 303 303 303 303 303 303 303 303 303 303 303 303 303 303 303 303 303 303 303 303 303 303 303 303 303 303 303 303 303 303 303 303 303 303 303 303 303 303 303 303 303 303 303 303 303 303 303 303 303 303 303 303 303 303 303 303 303 303 303 303 303 303 303 303 303 303 303 303 303 303 303 303 303 303 303 303 303 303 303 303 303 303 303 303 303 303 303 303 303 303 303 303 303 303 303 303 303 303 303 303 303 303 303 303 303 303 303 303 303 303 303 303 303 303 303 303 303 303 303 303 303 303 303 303 303 303 303 303 303 303 303 303 303 303 303 303 303 303 303 303 303 303 303 303 303 303 303 303 303 303 303 303 303 303 303 303 303 303 303 303 303 303 303 303 303 303 303 303 303 303 303 303 303 303 303 303 303 303 303 303 303 303 303 303 303 303 303 303 303 303 303 303 303 303 303 303 303 303 303 303 303 303 303 303 303 303 303 303 303 303 303 303 303 303 303 303 303 303 303 303 303 303 303 303 303 303 303 303 303 303 303 303 303 303 303 303 303 303 303 303 303 303 303 303 303 303 303 303 303 303 303 303 303 303 303 303 303 303 303 303 303 303 303 303 303 303 303 303 303 303 303 303 303 303 303 303 303 303 303 303 303 303 303 303 303 303 303 303 303 303 303 303 303 303 303 303 303 303 303 303 303 303 303 303 303 303 303 303 303 303 303 303 303 303 303 303 303 303 303 303 303 303 303 303 303 303 303 303 303 303 303 303 303 303 303 303 303 303 303 303 303 303 303 303 303 303 303 303 303 303 303 303 303 303 303 303 303 303 303 303 303 303 303 303 303 303 303 303 303 303 303 303 303 303 303 303 303 303 303 303 303 303 303 303 303 303 303 303 303 303 303 303 303 303 303 303 303 303 303 303 303 303 303 303 303 303 303 303 303 303 303 303 303 303 303 303 303 303 303 303 303 303 303 303 303 303 303 303 303 303 303 303 303 303 303 303 303 303 303 303 303 303 303 303 303 303 303 303 303 303 303 303 303 303 303 303 303 303 303 303 303 303 303 303 303 303 303 303 303 303 303 303 303 303 303 303 303 303 303 303 303 303 303 303 303 303 303 303 303 303 303 303 303 303 303 303 303 303 303 303 303 303 303 303 303 303 303 303 303 303 303 303 303 303 303 303 303 303 303 303 303 303 303 303 303 303 303 303 303 303 303 303 303 303 303 303 303 303 303 303 303 303 303 303 303 303 303 303 303 303 303 303 303 303 303 303 303 303 303 303 303 303 303 303 303 303 303 303 303 303 303 303 303 303 303 303 303 303 303 303 303 303 303 303 303 303 303 303 303 303 303 303 303 303 303 303 303 303 303 303 303 303 303 303 303 303 303 303 303 303 303 303 303 303 303 303 303 303 303 303 303 303 303 303 303 303 303 303 303 303 303 303 303 303 303 303 303 303 303 303 303 303 303 303 303 303 303 303 303 303 303 303 303 303 303 303 303 303 303 303 303 303 303 303 303 303 303 303 303 303 303 303 303 303 303 303 303 303 303 303 303 303 303 303 303 303 303 303 303 303 303 303 303 303 303 303 303 303 303 303 303 303 303 303 303 303 303 303 303 303 303 303 303 303 303 303 303 303 303 303 303 303 303 303 303 303 303 303 303 303 303 303 303 303 303 303 303 303 303 303 303 303 303 303 303 303 303 303 303 303 303 303 303 303 303 303 303 303 303 303 303 303 303 303 303 303 303 303 303 303 303 303 303 303 303 303 303 303 303 303 303 303 303 303 303 303 303 303 303 303 303 303 303 303 303 303 303 303 303 303 303 303 303 303 303 303 303 303 303 303 303 303 303 303 303 303 303 303 303 303 303 303 303 303 303 303 303 303 303 303 303 303 303 303 303 303 303 303 303 303 303 303 303 303 303 303 303 303 303 303 303 303 303 303 303 303 303 303 303 303 303 303 303 303 303 303 303 303 303 303 303 303 303 303 303 303 303 303 303 303 303 303 303 303 303 303 303 303 303 303 303 303 303 303 303 303 303 303 303 303 303 303 303 303 303 303 303 303 303 303 303 303 303 303 303 303 303 303 303 303 303 303 303 303 303 303 303 303 303 303 303 303 303 303 303 303 303 303 303 303 303 303 303 303 303 303 303 303 303 303 303 303 303 303 303 303 303 303 303 303 303 303 303 303 303 303 303 303 303 303 303 303 303 303 303 303 303 303 303 303 303 303 303 303 303 303 303 303 303 303 303 303 303 303 303 303 303 303 303 303 303 303 303 303 303 303 303 303 303 303 303 303 303 303 303 303 303 303 303 303 303 303 303 303 303 303 303 303 303 303 303 303 303 303 303 303 303 303 303 303 303 303 303 303 303 303 303 303 303 303 303 303 303 303 303 303 303 303 303 303 303 303 303 303 303 303 303 303 303 303 303 303 303 303 303 303 303 303 303 303 303 303 303 303 303 303 303 303 303 303 303 303 303 303 303 303 303 303 303 303 303 303 303 303 303 303 303 303 303 303 303 303 303 303 303 303 303 303 303 303 303 303 303 303 303 303 303 303 303 303 303 303 303 303 303 303 303 303 303 303 303 303 303 303 303 303 303 303 303 303 303 303 303 303 303 303 303 303 303 303 303 303 303 303 303 303 303 303 303 303 303 303 303 303 303 303 303 303 303 303 303 303 303 303 303 303 303 303 303 303 303 303 303 303 303 303 303 303 303 303 303 303 303 303 303 303 303 303 303 303 303 303 303 303 303 303 303 303 303 303 303 303 303 303 303 303 303 303 303 303 303 303 303 303 303 303 303 303 303 303 303 303 303 303 303 303 303 303 303 303 303 303 303 303 303 303 303 303 303 303 303 303 303 303 303 303 303 303 303 303 303 303 303 303 303 303 303 303 303 303 303 303 303 303 303 303 303 303 303 303 303 303 303 303 303 303 303 303 303 303 303 303 303 303 303 303 303 303 303 303 303 303 303 303 303 303 303 303 303 303 303 303 303 303 303 303 303 303 303 303 303 303 303 303 303 303 303 303 303 303 303 303 303 303 303 303 303 303 303 303 303 303 303 303 303 303 303 303 303 303 303 303 303 303 303 303 303 303 303 303 303 303 303 303 303 303 303 303 303 303 303 303 303 303 303 303 303 303 303 303 303 303 303 303 303 303 303 303 303 303 303 303 303 303 303 303 303 303 303 303 303 303 303 303 303 303 303 303 303 303 303 303 303 303 303 303 303 303 303 303 303 303 303 303 303 303 303 303 303 303 303 303 303 303 303 303 303 303 303 303 303 303 303 303 303 303 303 303 303 303 303 303 303 303 303 303 303 303 303 303 303 303 303 303 303 303 303 303 303 303 303 303 303 303 303 303 303 303 303 303 303 303 303 303 303 303 303 303 303 303 303 303 303 303 303 303 303 303 303 303 303 303 303 303 303 303 303 303 303 303 303 303 303 303 303 303 303 303 303 303 303 303 303 303 303 303 303 303 303 303 303 303 303 303 303 303 303 303 303 303 303 303 303 303 303 303 303 303 303 303 303 303 303 303 303 303 303 303 303 303 303 303 303 303 303 303 303 303 303 303 303 303 303 303 303 303 303 303 303 303 303 303 303 303 303 303 303 303 303 303 303 303 303 303 303 303 303 303 303 303 303 303 303 303 303 303 303 303 303 303 303 303 303 303 303 303 303 303 303 303 303 303 303 303 303 303 303 303 303 303 303 303 303 303 303 303 303 303 303 303 303 303 303 303 303 303 303 303 303 303 303 303 303 303 303 303 303 303 303 303 303 303 303 303 303 303 303 303 303 303 303 303 303 303 303 303 303 303 303 303 303 303 303 303 303 303 303 303 303 303 303 303 303 303 303 303 303 303 303 303 303 303 303 303 303 303 303 303 303 303 303 303 303 303 303 303 303 303 303 303 303 303 303 303 303 303 303 303 303 303 303 303 303 303 303 303 303 303 303 303 303 303 303 303 303 303 303 303 303 303 303 303 303 303 303 303 303 303 303 303 303 303 303 303 303 303 303 303 303 303 303 303 303 303 303 303 303 303 303 303 303 303 303 303 303 303 303 303 303 303 303 303 303 303 303 303 303 303 303 303 303 303 303 303 303 303 303 303 303 303 303 303 303 303 303 303 303 303 303 303 303 303 303 303 303 303 303 303 303 303 303 303 303 303 303 303 303 303 303 303 303 303 303 303 303 303 303 303 303 303 303 303 303 303 303 303 303 303 303 303 303 303 303 303 303 303 303 303 303 303 303 303 303 303 303 303 303 303 303 303 303 303 303 303 303 303 303 303 303 303 303 303 303 303 303 303 303 303 303 303 303 303 303 303 303 303 303 303 303 303 303 303 303 303 303 303 303 303 303 303 303 303 303 303 303 303 303 303 303 303 303 303 303 303 303 303 303 303 303 303 303 303 303 303 303 303 303 303 303 303 303 303 303 303 303 303 303 303 303 303 303 303 303 303 303 303 303 303 303 303 303 303 303 303 303 303 303 303 303 303 303 303 303 303 303 303 303 303 303 303 303 303 303 303 303 303 303 303 303 303 303 303 303 303 303 303 303 303 303 303 303 303 303 303 303 303 303 303 303 303 303 303 303 303 303 303 303 303 303 303 303 303 303 303 303 303 303 303 303 303 303 303 303 303 303 303 303 303 303 303 303 303 303 303 303 303 303 303 303 303 303 303 303 303 303 303 303 303 303 303 303 303 303 303 303 303 303 303 303 303 303 303 303 303 303 303 303 303 303 303 303 303 303 303 303 303 303 303 303 303 303 303 303 303 303 303 303 303 303 303 303 303 303 303 303 303 303 303 303 303 303 303 303 303 303 303 303 303 303 303 303 303 303 303 303 303 303 303 303 303 303 303 303 303 303 303 303 303 303 303 303 303 303 303 303 303 303 303 303 303 303 303 303 303 303 303 303 303 303 303 303 303 303 303 303 303 303 303 303 303 303 303 303 303 303 303 303 303 303 303 303 303 303 303 303 303 303 303 303 303 303 303 303 303 303 303 303 303 303 303 303 303 303 303 303 303 303 303 303 303 303 303 303 303 303 303 303 303 303 303 303 303 303 303 303 303 303 303 303 303 303 303 303 303 303 303 303 303 303 303 303 303 303 303 303 303 303 303 303 303 303 303 303 303 303 303 303 303 303 303 303 303 303 303 303 303 303 303 303 303 303 303 303 303 303 303 303 303 303 303 303 303 303 303 303 303 303 303 303 303 303 303 303 303 303 303 303 303 303 303 303 303 303 303 303 303 303 303 303 303 303 303 303 303 303 303 303 303 303 303 303 303 303 303 303 303 303 303 303 303 303 303 303 303 303 303 303 303 303 303 303 303 303 303 303 303 303 303 303 303 303 303 303 303 303 303 303 303 303 303 303 303 303 303 303 303 303 303 303 303 303 303 303 303 303 303 303 303 303 303 303 303 303 303 303 303 303 303 303 303 303 303 303 303 303 303 303 303 303 303 303 303 303 303 303 303 303 303 303 303 303 303 303 303 303 303 303 303 303 303 303 303 303 303 303 303 303 303 303 303 303 303 303 303 303 303 303 303 303 303 303 303 303 303 303 303 303 303 303 303 303 303 303 303 303 303 303 303 303 303 303 303 303 303 303 303 303 303 303 303 303 303 303 303 303 303 303 303 303 303 303 303 303 303 303 303 303 303 303 303 303 303 303 303 303 303 303 303 303 303 303 303 303 303 303 303 303 303 303 303 303 303 303 303 303 303 303 303 303 303 303 303 303 303 303 303 303 303 303 303 303 303 303 303 303 303 303 303 303 303 303 303 303 303 303 303 303 303 303 303 303 303 303 303 303 303 303 303 303 303 303 303 303 303 303 303 303 303 303 303 303 303 303 303 303 303 303 303 303 303 303 303 303 303 303 303 303 303 303 303 303 303 303 303 303 303 303 303 303 303 303 303 303 303 303 303 303 303 303 303 303 303 303 303 303 303 303 303 303 303 303 303 303 303 303 303 303 303 303 303 303 303 303 303 303 303 303 303 303 303 303 303 303 303 303 303 303 303 303 303 303 303 303 303 303 303 303 303 303 303 303 303 303 303 303 303 303 303 303 303 303 303 303 303 303 303 303 303 303 303 303 303 303 303 303 303 303 303 303 303 303 303 303 303 303 303 303 303 303 303 303 303 303 303 303 303 303 303 303 303 303 303 303 303 303 303 303 303 303 303 303 303 303 303 303 303 303 303 303 303 303 303 303 303 303 303 303 303 303 303 303 303 303 303 303 303 303 303 303 303 303 303 303 303 303 303 303 303 303 303 303 303 303 303 303 303 303 303 303 303 303 303 303 303 303 303 303 303 303 303 303 303 303 303 303 303 303 303 303 303 303 303 303 303 303 303 303 303 303 303 303 303 303 303 303 303 303 303 303 303 303 303 303 303 303 303 303 303 303 303 303 303 303 303 303 303 303 303 303 303 303 303 303 303 303 303 303 303 303 303 303 303 303 303 303 303 303 303 303 303 303 303 303 303 303 303 303 303 303 303 303 303 303 303 303 303 303 303 303 303 303 303 303 303 303 303 303 303 303 303 303 303 303 303 303 303 303 303 303 303 303 303 303 303 303 303 303 303 303 303 303 303 303 303 303 303 303 303 303 303 303 303 303 303 303 303 303 303 303 303 303 303 303 303 303 303 303 303 303 303 303 303 303 303 303 303 303 303 303 303 303 303 303 303 303 303 303 303 303 303 303 303 303 303 303 303 303 303 303 303 303 303 303 303 303 303 303 303 303 303 303 303 303 303 303 303 303 303 303 303 303 303 303 303 303 303 303 303 303 303 303 303 303 303 303 303 303 303 303 303 303 303 303 303 303 303 303 303 303 303 303 303 303 303 303 303 303 303 303 303 303 303 303 303 303 303 303 303 303 303 303 303 303 303 303 303 303 303 303 303 303 303 303 303 303 303 303 303 303 303 303 303 303 303 303 303 303 303 303 303 303 303 303 303 303 303 303 303 303 303 303 303 303 303 303 303 303 303 303 303 303 303 303 303 303 303 303 303 303 303 303 303 303 303 303 303 303 303 303 303 303 303 303 303 303 303 303 303 303 303 303 303 303 303 303 303 303 303 303 303 303 303 303 303 303 303 303 303 303 303 303 303 303 303 303 303 303 303 303 303 303 303 303 303 303 303 303 303 303 303 303 303 303 303 303 303 303 303 303 303 303 303 303 303 303 303 303 303 303 303 303 303 303 303 303 303 303 303 303 303 303 303 303 303 303 303 303 303 303 303 303 303 303 303 303 303 303 303 303 303 303 303 303 303 303 303 303 303 303 303 303 303 303 303 303 303 303 303 303 303 303 303 303 303 303 303 303 303 303 303 303 303 303 303 303 303 303 303 303 303 303 303 303 303 303 303 303 303 303 303 303 303 303 303 303 303 303 303 303 303 303 303 303 303 303 303 303 303 303 303 303 303 303 303 303 303 303 303 303 303 303 303 303 303 303 303 303 303 303 303 303 303 303 303 303 303 303 303 303 303 303 303 303 303 303 303 303 303 303 303 303 303 303 303 303 303 303 303 303 303 303 303 303 303 303 303 303 303 303 303 303 303 303 303 303 303 303 303 303 303 303 303 303 303 303 303 303 303 303 303 303 303 303 303 303 303 303 303 303 303 303 303 303 303 303 303 303 303 303 303 303 303 303 303 303 303 303 303 303 303 303 303 303 303 303 303 303 303 303 303 303 303 303 303 303 303 303 303 303 303 303 303 303 303 303 303 303 303 303 303 303 303 303 303 303 303 303 303 303 303 303 303 303 303 303 303 303 303 303 303 303 303 303 303 303 303 303 303 303 303 303 303 303 303 303 303 303 303 303 303 303 303 303 303 303 303 303 303 303 303 303 303 303 303 303 303 303 303 303 303 303 303 303 303 303 303 303 303 303 303 303 303 303 303 303 303 303 303 303 303 303 303 303 303 303 303 303 303 303 303 303 303 303 303 303 303 303 303 303 303 303 303 303 303 303 303 303 303 303 303 303 303 303 303 303 303 303 303 303 303 303 303 303 303 303 303 303 303 303 303 303 303 303 303 303 303 303 303 303 303 303 303 303 303 303 303 303 303 303 303 303 303 303 303 303 303 303 303 303 303 303 303 303 303 303 303 303 303 303 303 303 303 303 303 303 303 303 303 303 303 303 303 303 303 303 303 303 303 303 303 303 303 303 303 303 303 303 303 303 303 303 303 303 303 303 303 303 303 303 303 303 303 303 303 303 303 303 303 303 303 303 303 303 303 303 303 303 303 303 303 303 303 303 303 303 303 303 303 303 303 303 303 303 303 303 303 303 303 303 303 303 303 303 303 303 303 303 303 303 303 303 303 303 303 303 303 303 303 303 303 303 303 303 303 303 303 303 303 303 303 303 303 303 303 303 303 303 303 303 303 303 303 303 303 303 303 303 303 303 303 303 303 303 303 303 303 303 303 303 303 303 303 303 303 303 303 303 303 303 303 303 303 303 303 303 303 303 303 303 303 303 303 303 303 303 303 303 303 303 303 303 303 303 303 303 303 303 303 303 303 303 303 303 303 303 303 303 303 303 303 303 303 303 303 303 303 303 303 303 303 303 303 303 303 303 303 303 303 303 303 303 303 303 303 303 303 303 303 303 303 303 303 303 303 303 303 303 303 303 303 303 303 303 303 303 303 303 303 303 303 303 303 303 303 303 303 303 303 303 303 303 303 303 303 303 303 303 303 303 303 303 303 303 303 303 303 303 303 303 303 303 303 303 303 303 303 303 303 303 303 303 303 303 303 303 303 303 303 303 303 303 303 303 303 303 303 303 303 303 303 303 303 303 303 303 303 303 303 303 303 303 303 303 303 303 303 303 303 303 303 303 303 303 303 303 303 303 303 303 303 303 303 303 303 303 303 303 303 303 303 303 303 303 303 303 303 303 303 303 303 303 303 303 303 303 303 303 303 303 303 303 303 303 303 303 303 303 303 303 303 303 303 303 303 303 303 303 303 303 303 303 303 303 303 303 303 303 303 303 303 303 303 303 303 303 303 303 303 303 303 303 303 303 303 303 303 303 303 303 303 303 303 303 303 303 303 303 303 303 303 303 303 303 303 303 303 303 303 303 303 303 303 303 303 303 303 303 303 303 303 303 303 303 303 303 303 303 303 303 303 303 303 303 303 303 303 303 303 303 303 303 303 303 303 303 303 303 303 303 303 303 303 303 303 303 303 303 303 303 303 303 303 303 303 303 303 303 303 303 303 303 303 303 303 303 303 303 303 303 303 303 303 303 303 303 303 303 303 303 303 303 303 303 303 303 303 303 303 303 303 303 303 303 303 303 303 303 303 303 303 303 303 303 303 303 303 303 303 303 303 303 303 303 303 303 303 303 303 303 303 303 303 303 303 303 303 303 303 303 303 303 303 303 303 303 303 303 303 303 303 303 303 303 303 303 303 303 303 303 303 303 303 303 303 303 303 303 303 303 303 303 303 303 303 303 303 303 303 303 303 303 303 303 303 303 303 303 303 303 303 303 303 303 303 303 303 303 303 303 303 303 303 303 303 303 303 303 303 303 303 303 303 303 303 303 303 303 303 303 303 303 303 303 303 303 303 303 303 303 303 303 303 303 303 303 303 303 303 303 303 303 303 303 303 303 303 303 303 303 303 303 303 303 303 303 303 303 303 303 303 303 303 303 303 303 303 303 303 303 303 303 303 303 303 303 303 303 303 303 303 303 303 303 303 303 303 303 303 303 303 303 303 303 303 303 303 303 303 303 303 303 303 303 303 303 303 303 303 303 303 303 303 303 303 303 303 303 303 303 303 303 303 303 303 303 303 303 303 303 303 303 303 303 303 303 303 303 303 303 303 303 303 303 303 303 303 303 303 303 303 303 303 303 303 303 303 303 303 303 303 303 303 303 303 303 303 303 303 303 303 303 303 303 303 303 303 303 303 303 303 303 303 303 303 303 303 303 303 303 303 303 303 303 303 303 303 303 303 303 303 303 303 303 303 303 303 303 303 303 303 303 303 303 303 303 303 303 303 303 303 303 303 303 303 303 303 303 303 303 303 303 303 303 303 303 303 303 303 303 303 303 303 303 303 303 303 303 303 303 303 303 303 303 303 303 303 303 303 303 303 303 303 303 303 303 303 303 303 303 303 303 303 303 303 303 303 303 303 303 303 303 303 303 303 303 303 303 303 303 303 303 303 303 303 303 303 303 303 303 303 303 303 303 303 303 303 303 303 303 303 303 303 303 303 303 303 303 303 303 303 303 303 303 303 303 303 303 303 303 303 303 303 303 303 303 303 303 303 303 303 303 303 303 303 303 303 303 303 303 303 303 303 303 303 303 303 303 303 303 303 303 303 303 303 303 303 303 303 30