# vtk DataFile Version 4.2
written by meshio v4.4.6
ASCII
DATASET UNSTRUCTURED_GRID
POINTS 14144 double
0.0 2.5 0.0 0.0 4.5 0.0 0.0 0.5 0.0 0.0 -2.5 0.0 0.0 -0.5 0.0 0.0 -4.5 0.0 0.0 0.0 0.0 0.0 14.0 0.0 0.0 -14.0 0.0 0.06112869715229434 4.499065602321361 0.0 0.1199627999938048 4.496398989835861 0.0 0.176540100204017 4.492193161573434 0.0 0.2309060735814275 4.486625879521156 0.0 0.2831123328372525 4.479860451394353 0.0 0.3332276276237191 4.472044458978617 0.0 0.3834224624650339 4.462902752373955 0.0 0.4352675643318064 4.452060999928193 0.0 0.4887662957566238 4.439357498794987 0.0 0.542053128035775 4.425143736552321 0.0 0.5929965392649739 4.410066780094288 0.0 0.6416728840788254 4.394269228446147 0.0 0.6893929306230574 4.377428397358193 0.0 0.7384180454922853 4.358692763770105 0.0 0.7887744699614981 4.337888689648249 0.0 0.8394582593808433 4.31529882684843 0.0 0.8878175642121082 4.29214395980805 0.0 0.933797170267112 4.268621735929177 0.0 0.9780702568924042 4.244528180506817 0.0 1.023097195725206 4.218508693053142 0.0 1.069109267055271 4.190267841230064 0.0 1.11566691129528 4.159905823545676 0.0 1.160163734932894 4.129116358074695 0.0 1.202223180184044 4.098330198997743 0.0 1.242141878850002 4.067508709005148 0.0 1.282112771607021 4.034987570269598 0.0 1.322707515443944 4.00014826886815 0.0 1.363771156478849 3.962917712230029 0.0 1.403203182890442 3.925138880083669 0.0 1.440197785834628 3.887742893217989 0.0 1.474904481285533 3.850798567915977 0.0 1.508906411359128 3.812707675668623 0.0 1.543164621040638 3.77225899578997 0.0 1.577582157766125 3.729322795484562 0.0 1.610854444729589 3.685389369740983 0.0 1.641748774072241 3.642217563703296 0.0 1.670414440715501 3.599870717970581 0.0 1.697720891007555 3.557234021509199 0.0 1.724897645191219 3.512288552545066 0.0 1.751852084310525 3.464890809727644 0.0 1.777937562983938 3.415935599335857 0.0 1.801833614039976 3.367983656133938 0.0 1.823629274338453 3.321204158401434 0.0 1.843747709145007 3.274980248149938 0.0 1.863288191611767 3.226744188143361 0.0 1.882238980503916 3.176148223595669 0.0 1.900301966061319 3.123580337874348 0.0 1.916464339289789 3.071982898547285 0.0 1.930708595488262 3.021885350731119 0.0 1.94325117359499 2.973048492568882 0.0 1.954801440528833 2.92278993378083 0.0 1.965417254799136 2.870317451030636 0.0 1.974928065736111 2.815688351333756 0.0 1.982805344361162 2.761692503470795 0.0 1.98899763687296 2.709495585905239 0.0 1.993665630235977 2.659051421923174 0.0 1.997078220951006 2.608067476158027 0.0 1.999241829607267 2.55506456890403 0.0 2.0 2.500000000000025 0.0 1.999241829607268 2.444935431096019 0.0 1.997078220951008 2.391932523842018 0.0 1.993665630235981 2.340948578076871 0.0 1.988997636872965 2.290504414094808 0.0 1.982805344361169 2.238307496529252 0.0 1.974928065736118 2.184311648666292 0.0 1.965417254799144 2.129682548969407 0.0 1.954801440528842 2.077210066219209 0.0 1.943251173595 2.026951507431154 0.0 1.930708595488271 1.978114649268914 0.0 1.916464339289798 1.928017101452745 0.0 1.90030196606133 1.876419662125687 0.0 1.88223898050393 1.823851776404369 0.0 1.86328819161178 1.773255811856673 0.0 1.843747709145021 1.725019751850095 0.0 1.823629274338468 1.678795841598599 0.0 1.801833614039993 1.632016343866097 0.0 1.777937562983954 1.584064400664174 0.0 1.751852084310541 1.535109190272385 0.0 1.724897645191233 1.487711447454957 0.0 1.697720891007571 1.442765978490826 0.0 1.670414440715513 1.400129282029438 0.0 1.641748774072252 1.357782436296719 0.0 1.610854444729603 1.314610630259034 0.0 1.577582157766138 1.270677204515454 0.0 1.543164621040652 1.227741004210046 0.0 1.508906411359139 1.18729232433139 0.0 1.474904481285541 1.149201432084032 0.0 1.440197785834639 1.112257106782022 0.0 1.403203182890451 1.074861119916341 0.0 1.363771156478861 1.037082287769982 0.0 1.322707515443955 0.9998517311318595 0.0 1.282112771607032 0.9650124297304112 0.0 1.242141878850013 0.9324912909948602 0.0 1.202223180184057 0.9016698010022675 0.0 1.160163734932907 0.8708836419253141 0.0 1.11566691129529 0.8400941764543304 0.0 1.069109267055278 0.8097321587699404 0.0 1.023097195725209 0.7814913069468592 0.0 0.9780702568924081 0.7554718194931849 0.0 0.9337971702671161 0.7313782640708255 0.0 0.8878175642121107 0.7078560401919507 0.0 0.8394582593808442 0.6847011731515709 0.0 0.7887744699614975 0.6621113103517506 0.0 0.7384180454922845 0.6413072362298942 0.0 0.6893929306230517 0.6225716026418051 0.0 0.6416728840788196 0.6057307715538507 0.0 0.5929965392649663 0.5899332199057088 0.0 0.5420531280357708 0.5748562634476779 0.0 0.4887662957566231 0.5606425012050127 0.0 0.4352675643318056 0.5479390000718067 0.0 0.3834224624650331 0.5370972476260445 0.0 0.3332276276237166 0.5279555410213821 0.0 0.2831123328372481 0.520139548605647 0.0 0.230906073581425 0.5133741204788433 0.0 0.1765401002040144 0.5078068384265655 0.0 0.1199627999937969 0.5036010101641384 0.0 0.06112869715229177 0.5009343976786396 0.0 0.0 4.43921946641332 0.0 0.0 4.37821520423194 0.0 0.0 4.316596495651211 0.0 0.0 4.254010053868167 0.0 0.0 4.190149704913363 0.0 0.0 4.124755044973495 0.0 0.0 4.057604216276755 0.0 0.0 3.988505096141842 0.0 0.0 3.917287557552071 0.0 0.0 3.843796726362088 0.0 0.0 3.767888338079306 0.0 0.0 3.689425045408027 0.0 0.0 3.608273618401753 0.0 0.0 3.524303046486248 0.0 0.0 3.437382926718698 0.0 0.0 3.347382331391744 0.0 0.0 3.254168889140362 0.0 0.0 3.157608035240858 0.0 0.0 3.057562405348501 0.0 0.0 2.953891307039514 0.0 0.0 2.846450371034997 0.0 0.0 2.735091013496438 0.0 0.0 2.619660170134908 0.0 0.0 2.380339829865092 0.0 0.0 2.264908986503562 0.0 0.0 2.153549628965004 0.0 0.0 2.046108692960484 0.0 0.0 1.942437594651497 0.0 0.0 1.842391964759141 0.0 0.0 1.74583111085964 0.0 0.0 1.652617668608259 0.0 0.0 1.562617073281305 0.0 0.0 1.475696953513755 0.0 0.0 1.39172638159825 0.0 0.0 1.310574954591976 0.0 0.0 1.232111661920696 0.0 0.0 1.156203273637914 0.0 0.0 1.082712442447932 0.0 0.0 1.011494903858161 0.0 0.0 0.9423957837232477 0.0 0.0 0.8752449550265082 0.0 0.0 0.8098502950866386 0.0 0.0 0.7459899461318338 0.0 0.0 0.6834035043487898 0.0 0.0 0.62178479576806 0.0 0.0 0.5607805335866791 0.0 0.06112869715229434 -0.5009343976786398 0.0 0.1199627999938048 -0.503601010164139 0.0 0.176540100204017 -0.5078068384265657 0.0 0.2309060735814275 -0.5133741204788436 0.0 0.2831123328372525 -0.5201395486056477 0.0 0.3332276276237191 -0.5279555410213825 0.0 0.3834224624650339 -0.5370972476260447 0.0 0.4352675643318064 -0.547939000071807 0.0 0.4887662957566238 -0.5606425012050129 0.0 0.542053128035775 -0.574856263447679 0.0 0.5929965392649739 -0.5899332199057112 0.0 0.6416728840788254 -0.6057307715538527 0.0 0.6893929306230574 -0.6225716026418071 0.0 0.7384180454922853 -0.6413072362298944 0.0 0.7887744699614981 -0.6621113103517511 0.0 0.8394582593808433 -0.6847011731515704 0.0 0.8878175642121082 -0.7078560401919496 0.0 0.933797170267112 -0.7313782640708233 0.0 0.9780702568924042 -0.7554718194931827 0.0 1.023097195725206 -0.7814913069468579 0.0 1.069109267055271 -0.809732158769936 0.0 1.11566691129528 -0.8400941764543237 0.0 1.160163734932894 -0.8708836419253052 0.0 1.202223180184044 -0.9016698010022572 0.0 1.242141878850002 -0.932491290994852 0.0 1.282112771607021 -0.9650124297304026 0.0 1.322707515443944 -0.9998517311318493 0.0 1.363771156478849 -1.037082287769971 0.0 1.403203182890442 -1.074861119916331 0.0 1.440197785834628 -1.112257106782011 0.0 1.474904481285533 -1.149201432084024 0.0 1.508906411359128 -1.187292324331377 0.0 1.543164621040638 -1.22774100421003 0.0 1.577582157766125 -1.270677204515438 0.0 1.610854444729589 -1.314610630259016 0.0 1.641748774072241 -1.357782436296704 0.0 1.670414440715501 -1.400129282029419 0.0 1.697720891007555 -1.442765978490801 0.0 1.724897645191219 -1.487711447454933 0.0 1.751852084310525 -1.535109190272356 0.0 1.777937562983937 -1.584064400664142 0.0 1.801833614039976 -1.632016343866062 0.0 1.823629274338453 -1.678795841598566 0.0 1.843747709145006 -1.72501975185006 0.0 1.863288191611766 -1.773255811856638 0.0 1.882238980503916 -1.823851776404331 0.0 1.900301966061319 -1.876419662125652 0.0 1.916464339289789 -1.928017101452715 0.0 1.930708595488262 -1.978114649268881 0.0 1.94325117359499 -2.026951507431118 0.0 1.954801440528833 -2.07721006621917 0.0 1.965417254799136 -2.129682548969364 0.0 1.974928065736111 -2.184311648666244 0.0 1.982805344361162 -2.238307496529205 0.0 1.98899763687296 -2.290504414094761 0.0 1.993665630235977 -2.340948578076826 0.0 1.997078220951006 -2.391932523841973 0.0 1.999241829607267 -2.44493543109597 0.0 2.0 -2.499999999999975 0.0 1.999241829607268 -2.555064568903981 0.0 1.997078220951008 -2.608067476157982 0.0 1.993665630235981 -2.659051421923129 0.0 1.988997636872965 -2.709495585905192 0.0 1.982805344361169 -2.761692503470748 0.0 1.974928065736118 -2.815688351333708 0.0 1.965417254799144 -2.870317451030593 0.0 1.954801440528842 -2.922789933780791 0.0 1.943251173595 -2.973048492568846 0.0 1.930708595488271 -3.021885350731086 0.0 1.916464339289798 -3.071982898547255 0.0 1.90030196606133 -3.123580337874313 0.0 1.88223898050393 -3.176148223595631 0.0 1.86328819161178 -3.226744188143327 0.0 1.843747709145021 -3.274980248149905 0.0 1.823629274338468 -3.321204158401401 0.0 1.801833614039993 -3.367983656133903 0.0 1.777937562983954 -3.415935599335826 0.0 1.751852084310541 -3.464890809727615 0.0 1.724897645191233 -3.512288552545042 0.0 1.697720891007571 -3.557234021509174 0.0 1.670414440715513 -3.599870717970562 0.0 1.641748774072252 -3.642217563703281 0.0 1.610854444729603 -3.685389369740966 0.0 1.577582157766138 -3.729322795484546 0.0 1.543164621040652 -3.772258995789954 0.0 1.508906411359139 -3.81270767566861 0.0 1.474904481285541 -3.850798567915968 0.0 1.440197785834639 -3.887742893217978 0.0 1.403203182890451 -3.925138880083659 0.0 1.363771156478861 -3.962917712230018 0.0 1.322707515443955 -4.00014826886814 0.0 1.282112771607032 -4.034987570269589 0.0 1.242141878850013 -4.06750870900514 0.0 1.202223180184057 -4.098330198997733 0.0 1.160163734
[...]
POINT_DATA 14144
FIELD FieldData 1
node_groups 1 14144 long
300 300 300 301 301 301 302 200 200 300 300 300 300 300 300 300 300 300 300 300 300 300 300 300 300 300 300 300 300 300 300 300 300 300 300 300 300 300 300 300 300 300 300 300 300 300 300 300 300 300 300 300 300 300 300 300 300 300 300 300 300 300 300 300 300 300 300 300 300 300 300 300 300 300 300 300 300 300 300 300 300 300 300 300 300 300 300 300 300 300 300 300 300 300 300 300 300 300 300 300 300 300 300 300 300 300 300 300 300 300 300 300 300 300 300 300 300 300 300 300 300 300 300 300 300 300 300 300 300 300 300 300 300 300 300 300 300 300 300 300 300 300 300 300 300 300 300 300 300 300 300 300 300 300 300 300 300 300 300 300 300 300 300 300 300 300 300 300 300 300 300 300 301 301 301 301 301 301 301 301 301 301 301 301 301 301 301 301 301 301 301 301 301 301 301 301 301 301 301 301 301 301 301 301 301 301 301 301 301 301 301 301 301 301 301 301 301 301 301 301 301 301 301 301 301 301 301 301 301 301 301 301 301 301 301 301 301 301 301 301 301 301 301 301 301 301 301 301 301 301 301 301 301 301 301 301 301 301 301 301 301 301 301 301 301 301 301 301 301 301 301 301 301 301 301 301 301 301 301 301 301 301 301 301 301 301 301 301 301 301 301 301 301 301 301 301 301 301 301 301 301 301 301 301 301 301 301 301 301 301 301 301 301 301 301 301 301 301 301 301 301 301 301 301 301 301 301 301 301 301 301 301 301 301 301 200 200 200 200 200 200 200 200 200 200 200 200 200 200 200 200 200 200 200 200 200 200 200 200 200 200 200 200 200 200 200 200 200 200 200 200 200 200 200 200 200 200 200 200 200 200 200 200 200 200 200 200 200 200 200 200 200 200 200 200 200 200 200 200 200 200 200 200 200 200 200 200 200 200 200 200 200 200 200 200 200 200 200 200 200 302 302 302 302 302 302 302 302 302 302 302 302 302 302 302 302 302 302 302 302 302 302 302 302 302 302 302 302 302 302 302 302 302 302 302 302 302 302 302 302 302 302 302 302 302 302 302 302 302 302 302 302 302 302 302 302 302 302 302 302 302 302 302 302 302 302 302 302 302 302 302 302 302 302 302 302 302 302 302 302 302 302 302 302 302 302 302 302 302 302 302 302 302 302 302 302 302 302 302 302 302 302 302 302 302 302 302 302 302 302 302 302 302 302 302 302 302 302 302 302 302 302 300 300 300 300 300 300 300 300 300 300 300 300 300 300 300 300 300 300 300 300 300 300 300 300 300 300 300 300 300 300 300 300 300 300 300 300 300 300 300 300 300 300 300 300 300 300 300 300 300 300 300 300 300 300 300 300 300 300 300 300 300 300 300 300 300 300 300 300 300 300 300 300 300 300 300 300 300 300 300 300 300 300 300 300 300 300 300 300 300 300 300 300 300 300 300 300 300 300 300 300 300 300 300 300 300 300 300 300 300 300 300 300 300 300 300 300 300 300 300 300 300 300 300 300 300 300 300 300 300 300 300 300 300 300 300 300 300 300 300 300 300 300 300 300 300 300 300 300 300 300 300 300 300 300 300 300 300 300 300 300 300 300 300 300 300 300 300 300 300 300 300 300 300 300 300 300 300 300 300 300 300 300 300 300 300 300 300 300 300 300 300 300 300 300 300 300 300 300 300 300 300 300 300 300 300 300 300 300 300 300 300 300 300 300 300 300 300 300 300 300 300 300 300 300 300 300 300 300 300 300 300 300 300 300 300 300 300 300 300 300 300 300 300 300 300 300 300 300 300 300 300 300 300 300 300 300 300 300 300 300 300 300 300 300 300 300 300 300 300 300 300 300 300 300 300 300 300 300 300 300 300 300 300 300 300 300 300 300 300 300 300 300 300 300 300 300 300 300 300 300 300 300 300 300 300 300 300 300 300 300 300 300 300 300 300 300 300 300 300 300 300 300 300 300 300 300 300 300 300 300 300 300 300 300 300 300 300 300 300 300 300 300 300 300 300 300 300 300 300 300 300 300 300 300 300 300 300 300 300 300 300 300 300 300 300 300 300 300 300 300 300 300 300 300 300 300 300 300 300 300 300 300 300 300 300 300 300 300 300 300 300 300 300 300 300 300 300 300 300 300 300 300 300 300 300 300 300 300 300 300 300 300 300 300 300 300 300 300 300 300 300 300 300 300 300 300 300 300 300 300 300 300 300 300 300 300 300 300 300 300 300 300 300 300 300 300 300 300 300 300 300 300 300 300 300 300 300 300 300 300 300 300 300 300 300 300 300 300 300 300 300 300 300 300 300 300 300 300 300 300 300 300 300 300 300 300 300 300 300 300 300 300 300 300 300 300 300 300 300 300 300 300 300 300 300 300 300 300 300 300 300 300 300 300 300 300 300 300 300 300 300 300 300 300 300 300 300 300 300 300 300 300 300 300 300 300 300 300 300 300 300 300 300 300 300 300 300 300 300 300 300 300 300 300 300 300 300 300 300 300 300 300 300 300 300 300 300 300 300 300 300 300 300 300 300 300 300 300 300 300 300 300 300 300 300 300 300 300 300 300 300 300 300 300 300 300 300 300 300 300 300 300 300 300 300 300 300 300 300 300 300 300 300 300 300 300 300 300 300 300 300 300 300 300 300 300 300 300 300 300 300 300 300 300 300 300 300 300 300 300 300 300 300 300 300 300 300 300 300 300 300 300 300 300 300 300 300 300 300 300 300 300 300 300 300 300 300 300 300 300 300 300 300 300 300 300 300 300 300 300 300 300 300 300 300 300 300 300 300 300 300 300 300 300 300 300 300 300 300 300 300 300 300 300 300 300 300 300 300 300 300 300 300 300 300 300 300 300 300 300 300 300 300 300 300 300 300 300 300 300 300 300 300 300 300 300 300 300 300 300 300 300 300 300 300 300 300 300 300 300 300 300 300 300 300 300 300 300 300 300 300 300 300 300 300 300 300 300 300 300 300 300 300 300 300 300 300 300 300 300 300 300 300 300 300 300 300 300 300 300 300 300 300 300 300 300 300 300 300 300 300 300 300 300 300 300 300 300 300 300 300 300 300 300 300 300 300 300 300 300 300 300 300 300 300 300 300 300 300 300 300 300 300 300 300 300 300 300 300 300 300 300 300 300 300 300 300 300 300 300 300 300 300 300 300 300 300 300 300 300 300 300 300 300 300 300 300 300 300 300 300 300 300 300 300 300 300 300 300 300 300 300 300 300 300 300 300 300 300 300 300 300 300 300 300 300 300 300 300 300 300 300 300 300 300 300 300 300 300 300 300 300 300 300 300 300 300 300 300 300 300 300 300 300 300 300 300 300 300 300 300 300 300 300 300 300 300 300 300 300 300 300 300 300 300 300 300 300 300 300 300 300 300 300 300 300 300 300 300 300 300 300 300 300 300 300 300 300 300 300 300 300 300 300 300 300 300 300 300 300 300 300 300 300 300 300 300 300 300 300 300 300 300 300 300 300 300 300 300 300 300 300 300 300 300 300 300 300 300 300 300 300 300 300 300 300 300 300 300 300 300 300 300 300 300 300 300 300 300 300 300 300 300 300 300 300 300 300 300 300 300 300 300 300 300 300 300 300 300 300 300 300 300 300 300 300 300 300 300 300 300 300 300 300 300 300 300 300 300 300 300 300 300 300 300 300 300 300 300 300 300 300 300 300 300 300 300 300 300 300 300 300 300 300 300 300 300 300 300 300 300 300 300 300 300 300 300 300 300 300 300 300 300 300 300 300 300 300 300 300 300 300 300 300 300 300 300 300 300 300 300 300 300 300 300 300 300 300 300 300 300 300 300 300 300 300 300 300 300 300 300 300 300 300 300 300 300 300 300 300 300 300 300 300 300 300 300 300 300 300 300 300 300 300 300 300 300 300 300 300 300 300 300 300 300 300 300 300 300 300 300 300 300 300 300 300 300 300 300 300 300 300 300 300 300 300 300 300 300 300 300 300 300 300 300 300 300 300 300 300 300 300 300 300 300 300 300 300 300 300 300 300 300 300 300 300 300 300 300 300 300 300 300 300 300 300 300 300 300 300 300 300 300 300 300 300 300 300 300 300 300 300 300 300 300 300 300 300 300 300 300 300 300 300 300 300 300 300 300 300 300 300 300 300 300 300 300 300 300 300 300 300 300 300 300 300 300 300 300 300 300 300 300 300 300 300 300 300 300 300 300 300 300 300 300 300 300 300 300 300 300 300 300 300 300 300 300 300 300 300 300 300 300 300 300 300 300 300 300 300 300 300 300 300 300 300 300 300 300 300 300 300 300 300 300 300 300 300 300 300 300 300 300 300 300 300 300 300 300 300 300 300 300 300 300 300 300 300 300 300 300 300 300 300 300 300 300 300 300 300 300 300 300 300 300 300 300 300 300 300 300 300 300 300 300 300 300 300 300 300 300 300 300 300 300 300 300 300 300 300 300 300 300 300 300 300 300 300 300 300 300 300 300 300 300 300 300 300 300 300 300 300 300 300 300 300 300 300 300 300 300 300 300 300 300 300 300 300 300 300 300 300 300 300 300 300 300 300 300 300 300 300 300 300 300 300 300 300 300 300 300 300 300 300 300 300 300 300 300 300 300 300 300 300 300 300 300 300 300 300 300 300 300 300 300 300 300 300 300 300 300 300 300 300 300 300 300 300 300 300 300 300 300 300 300 300 300 300 300 300 300 300 300 300 300 300 300 300 300 300 300 300 300 300 300 300 300 300 300 300 300 300 300 300 300 300 300 300 300 300 300 300 300 300 300 300 300 300 300 300 300 300 300 300 300 300 300 300 300 300 300 300 300 300 300 300 300 300 300 300 300 300 300 300 300 300 300 300 300 300 300 300 300 300 300 300 300 300 300 300 300 300 300 300 300 300 300 300 300 300 300 300 300 300 300 301 301 301 301 301 301 301 301 301 301 301 301 301 301 301 301 301 301 301 301 301 301 301 301 301 301 301 301 301 301 301 301 301 301 301 301 301 301 301 301 301 301 301 301 301 301 301 301 301 301 301 301 301 301 301 301 301 301 301 301 301 301 301 301 301 301 301 301 301 301 301 301 301 301 301 301 301 301 301 301 301 301 301 301 301 301 301 301 301 301 301 301 301 301 301 301 301 301 301 301 301 301 301 301 301 301 301 301 301 301 301 301 301 301 301 301 301 301 301 301 301 301 301 301 301 301 301 301 301 301 301 301 301 301 301 301 301 301 301 301 301 301 301 301 301 301 301 301 301 301 301 301 301 301 301 301 301 301 301 301 301 301 301 301 301 301 301 301 301 301 301 301 301 301 301 301 301 301 301 301 301 301 301 301 301 301 301 301 301 301 301 301 301 301 301 301 301 301 301 301 301 301 301 301 301 301 301 301 301 301 301 301 301 301 301 301 301 301 301 301 301 301 301 301 301 301 301 301 301 301 301 301 301 301 301 301 301 301 301 301 301 301 301 301 301 301 301 301 301 301 301 301 301 301 301 301 301 301 301 301 301 301 301 301 301 301 301 301 301 301 301 301 301 301 301 301 301 301 301 301 301 301 301 301 301 301 301 301 301 301 301 301 301 301 301 301 301 301 301 301 301 301 301 301 301 301 301 301 301 301 301 301 301 301 301 301 301 301 301 301 301 301 301 301 301 301 301 301 301 301 301 301 301 301 301 301 301 301 301 301 301 301 301 301 301 301 301 301 301 301 301 301 301 301 301 301 301 301 301 301 301 301 301 301 301 301 301 301 301 301 301 301 301 301 301 301 301 301 301 301 301 301 301 301 301 301 301 301 301 301 301 301 301 301 301 301 301 301 301 301 301 301 301 301 301 301 301 301 301 301 301 301 301 301 301 301 301 301 301 301 301 301 301 301 301 301 301 301 301 301 301 301 301 301 301 301 301 301 301 301 301 301 301 301 301 301 301 301 301 301 301 301 301 301 301 301 301 301 301 301 301 301 301 301 301 301 301 301 301 301 301 301 301 301 301 301 301 301 301 301 301 301 301 301 301 301 301 301 301 301 301 301 301 301 301 301 301 301 301 301 301 301 301 301 301 301 301 301 301 301 301 301 301 301 301 301 301 301 301 301 301 301 301 301 301 301 301 301 301 301 301 301 301 301 301 301 301 301 301 301 301 301 301 301 301 301 301 301 301 301 301 301 301 301 301 301 301 301 301 301 301 301 301 301 301 301 301 301 301 301 301 301 301 301 301 301 301 301 301 301 301 301 301 301 301 301 301 301 301 301 301 301 301 301 301 301 301 301 301 301 301 301 301 301 301 301 301 301 301 301 301 301 301 301 301 301 301 301 301 301 301 301 301 301 301 301 301 301 301 301 301 301 301 301 301 301 301 301 301 301 301 301 301 301 301 301 301 301 301 301 301 301 301 301 301 301 301 301 301 301 301 301 301 301 301 301 301 301 301 301 301 301 301 301 301 301 301 301 301 301 301 301 301 301 301 301 301 301 301 301 301 301 301 301 301 301 301 301 301 301 301 301 301 301 301 301 301 301 301 301 301 301 301 301 301 301 301 301 301 301 301 301 301 301 301 301 301 301 301 301 301 301 301 301 301 301 301 301 301 301 301 301 301 301 301 301 301 301 301 301 301 301 301 301 301 301 301 301 301 301 301 301 301 301 301 301 301 301 301 301 301 301 301 301 301 301 301 301 301 301 301 301 301 301 301 301 301 301 301 301 301 301 301 301 301 301 301 301 301 301 301 301 301 301 301 301 301 301 301 301 301 301 301 301 301 301 301 301 301 301 301 301 301 301 301 301 301 301 301 301 301 301 301 301 301 301 301 301 301 301 301 301 301 301 301 301 301 301 301 301 301 301 301 301 301 301 301 301 301 301 301 301 301 301 301 301 301 301 301 301 301 301 301 301 301 301 301 301 301 301 301 301 301 301 301 301 301 301 301 301 301 301 301 301 301 301 301 301 301 301 301 301 301 301 301 301 301 301 301 301 301 301 301 301 301 301 301 301 301 301 301 301 301 301 301 301 301 301 301 301 301 301 301 301 301 301 301 301 301 301 301 301 301 301 301 301 301 301 301 301 301 301 301 301 301 301 301 301 301 301 301 301 301 301 301 301 301 301 301 301 301 301 301 301 301 301 301 301 301 301 301 301 301 301 301 301 301 301 301 301 301 301 301 301 301 301 301 301 301 301 301 301 301 301 301 301 301 301 301 301 301 301 301 301 301 301 301 301 301 301 301 301 301 301 301 301 301 301 301 301 301 301 301 301 301 301 301 301 301 301 301 301 301 301 301 301 301 301 301 301 301 301 301 301 301 301 301 301 301 301 301 301 301 301 301 301 301 301 301 301 301 301 301 301 301 301 301 301 301 301 301 301 301 301 301 301 301 301 301 301 301 301 301 301 301 301 301 301 301 301 301 301 301 301 301 301 301 301 301 301 301 301 301 301 301 301 301 301 301 301 301 301 301 301 301 301 301 301 301 301 301 301 301 301 301 301 301 301 301 301 301 301 301 301 301 301 301 301 301 301 301 301 301 301 301 301 301 301 301 301 301 301 301 301 301 301 301 301 301 301 301 301 301 301 301 301 301 301 301 301 301 301 301 301 301 301 301 301 301 301 301 301 301 301 301 301 301 301 301 301 301 301 301 301 301 301 301 301 301 301 301 301 301 301 301 301 301 301 301 301 301 301 301 301 301 301 301 301 301 301 301 301 301 301 301 301 301 301 301 301 301 301 301 301 301 301 301 301 301 301 301 301 301 301 301 301 301 301 301 301 301 301 301 301 301 301 301 301 301 301 301 301 301 301 301 301 301 301 301 301 301 301 301 301 301 301 301 301 301 301 301 301 301 301 301 301 301 301 301 301 301 301 301 301 301 301 301 301 301 301 301 301 301 301 301 301 301 301 301 301 301 301 301 301 301 301 301 301 301 301 301 301 301 301 301 301 301 301 301 301 301 301 301 301 301 301 301 301 301 301 301 301 301 301 301 301 301 301 301 301 301 301 301 301 301 301 301 301 301 301 301 301 301 301 301 301 301 301 301 301 301 301 301 301 301 301 301 301 301 301 301 301 301 301 301 301 301 301 301 301 301 301 301 301 301 301 301 301 301 301 301 301 301 301 301 301 301 301 301 301 301 301 301 301 301 301 301 301 301 301 301 301 301 301 301 301 301 301 301 301 301 301 301 301 301 301 301 301 301 301 301 301 301 301 301 301 301 301 301 301 301 301 301 301 301 301 301 301 301 301 301 301 301 301 301 301 301 301 301 301 301 301 301 301 301 301 301 301 301 301 301 301 301 301 301 301 301 301 301 301 301 301 301 301 301 301 301 301 301 301 301 301 301 301 301 301 301 301 301 301 301 301 301 301 301 301 301 301 301 301 301 301 301 301 301 301 301 301 301 301 301 301 301 301 301 301 301 301 301 301 301 301 301 301 301 301 301 301 301 301 301 301 301 301 301 301 301 301 301 301 301 301 301 301 301 301 301 301 301 301 301 301 301 301 301 301 301 301 301 301 301 301 301 301 301 301 301 301 301 301 301 301 301 301 301 301 302 302 302 302 302 302 302 302 302 302 302 302 302 302 302 302 302 302 302 302 302 302 302 302 302 302 302 302 302 302 302 302 302 302 302 302 302 302 302 302 302 302 302 302 302 302 302 302 302 302 302 302 302 302 302 302 302 302 302 302 302 302 302 302 302 302 302 302 302 302 302 302 302 302 302 302 302 302 302 302 302 302 302 302 302 302 302 302 302 302 302 302 302 302 302 302 302 302 302 302 302 302 302 302 302 302 302 302 302 302 302 302 302 302 302 302 302 302 302 302 302 302 302 302 302 302 302 302 302 302 302 302 302 302 302 302 302 302 302 302 302 302 302 302 302 302 302 302 302 302 302 302 302 302 302 302 302 302 302 302 302 302 302 302 302 302 302 302 302 302 302 302 302 302 302 302 302 302 302 302 302 302 302 302 302 302 302 302 302 302 302 302 302 302 302 302 302 302 302 302 302 302 302 302 302 302 302 302 302 302 302 302 302 302 302 302 302 302 302 302 302 302 302 302 302 302 302 302 302 302 302 302 302 302 302 302 302 302 302 302 302 302 302 302 302 302 302 302 302 302 302 302 302 302 302 302 302 302 302 302 302 302 302 302 302 302 302 302 302 302 302 302 302 302 302 302 302 302 302 302 302 302 302 302 302 302 302 302 302 302 302 302 302 302 302 302 302 302 302 302 302 302 302 302 302 302 302 302 302 302 302 302 302 302 302 302 302 302 302 302 302 302 302 302 302 302 302 302 302 302 302 302 302 302 302 302 302 302 302 302 302 302 302 302 302 302 302 302 302 302 302 302 302 302 302 302 302 302 302 302 302 302 302 302 302 302 302 302 302 302 302 302 302 302 302 302 302 302 302 302 302 302 302 302 302 302 302 302 302 302 302 302 302 302 302 302 302 302 302 302 302 302 302 302 302 302 302 302 302 302 302 302 302 302 302 302 302 302 302 302 302 302 302 302 302 302 302 302 302 302 302 302 302 302 302 302 302 302 302 302 302 302 302 302 302 302 302 302 302 302 302 302 302 302 302 302 302 302 302 302 302 302 302 302 302 302 302 302 302 302 302 302 302 302 302 302 302 302 302 302 302 302 302 302 302 302 302 302 302 302 302 302 302 302 302 302 302 302 302 302 302 302 302 302 302 302 302 302 302 302 302 302 302 302 302 302 302 302 302 302 302 302 302 302 302 302 302 302 302 302 302 302 302 302 302 302 302 302 302 302 302 302 302 302 302 302 302 302 302 302 302 302 302 302 302 302 302 302 302 302 302 302 302 302 302 302 302 302 302 302 302 302 302 302 302 302 302 302 302 302 302 302 302 302 302 302 302 302 302 302 302 302 302 302 302 302 302 302 302 302 302 302 302 302 302 302 302 302 302 302 302 302 302 302 302 302 302 302 302 302 302 302 302 302 302 302 302 302 302 302 302 302 302 302 302 302 302 302 302 302 302 302 302 302 302 302 302 302 302 302 302 302 302 302 302 302 302 302 302 302 302 302 302 302 302 302 302 302 302 302 302 302 302 302 302 302 302 302 302 302 302 302 302 302 302 302 302 302 302 302 302 302 302 302 302 302 302 302 302 302 302 302 302 302 302 302 302 302 302 302 302 302 302 302 302 302 302 302 302 302 302 302 302 302 302 302 302 302 302 302 302 302 302 302 302 302 302 302 302 302 302 302 302 302 302 302 302 302 302 302 302 302 302 302 302 302 302 302 302 302 302 302 302 302 302 302 302 302 302 302 302 302 302 302 302 302 302 302 302 302 302 302 302 302 302 302 302 302 302 302 302 302 302 302 302 302 302 302 302 302 302 302 302 302 302 302 302 302 302 302 302 302 302 302 302 302 302 302 302 302 302 302 302 302 302 302 302 302 302 302 302 302 302 302 302 302 302 302 302 302 302 302 302 302 302 302 302 302 302 302 302 302 302 302 302 302 302 302 302 302 302 302 302 302 302 302 302 302 302 302 302 302 302 302 302 302 302 302 302 302 302 302 302 302 302 302 302 302 302 302 302 302 302 302 302 302 302 302 302 302 302 302 302 302 302 302 302 302 302 302 302 302 302 302 302 302 302 302 302 302 302 302 302 302 302 302 302 302 302 302 302 302 302 302 302 302 302 302 302 302 302 302 302 302 302 302 302 302 302 302 302 302 302 302 302 302 302 302 302 302 302 302 302 302 302 302 302 302 302 302 302 302 302 302 302 302 302 302 302 302 302 302 302 302 302 302 302 302 302 302 302 302 302 302 302 302 302 302 302 302 302 302 302 302 302 302 302 302 302 302 302 302 302 302 302 302 302 302 302 302 302 302 302 302 302 302 302 302 302 302 302 302 302 302 302 302 302 302 302 302 302 302 302 302 302 302 302 302 302 302 302 302 302 302 302 302 302 302 302 302 302 302 302 302 302 302 302 302 302 302 302 302 302 302 302 302 302 302 302 302 302 302 302 302 302 302 302 302 302 302 302 302 302 302 302 302 302 302 302 302 302 302 302 302 302 302 302 302 302 302 302 302 302 302 302 302 302 302 302 302 302 302 302 302 302 302 302 302 302 302 302 302 302 302 302 302 302 302 302 302 302 302 302 302 302 302 302 302 302 302 302 302 302 302 302 302 302 302 302 302 302 302 302 302 302 302 302 302 302 302 302 302 302 302 302 302 302 302 302 302 302 302 302 302 302 302 302 302 302 302 302 302 302 302 302 302 302 302 302 302 302 302 302 302 302 302 302 302 302 302 302 302 