# vtk DataFile Version 4.2
written by meshio v4.4.6
ASCII
DATASET UNSTRUCTURED_GRID
POINTS 5247 double
0.0 0.0 0.0 0.0 14.0 0.0 0.0 -14.0 0.0 0.5113083228072173 13.99065987718335 0.0 1.021934405252708 13.96265197128972 0.0 1.53119691729024 13.91601365335924 0.0 2.038416348290075 13.85080715305154 0.0 2.542915913712114 13.76711947561252 0.0 3.044022458141797 13.66506228578298 0.0 3.541067353483539 13.54477175880395 0.0 4.03338739111333 13.40640839871768 0.0 4.520325666800248 13.25015682420653 0.0 5.001232457215868 13.07622552225567 0.0 5.475466086862189 12.88484656996823 0.0 5.942393784261424 12.67627532490405 0.0 6.401392526264949 12.45079008435526 0.0 6.851849869355203 12.2086917140133 0.0 7.293164766831038 11.95030324652284 0.0 7.724748370786251 11.67596945045828 0.0 8.146024817811355 11.3860563702979 0.0 8.556431997369904 11.08095083800955 0.0 8.955422301824497 10.76105995689943 0.0 9.342463357111368 10.42681055841293 0.0 9.717038733088886 10.07864863261193 0.0 10.07864863261196 9.717038733088856 0.0 10.42681055841296 9.342463357111335 0.0 10.76105995689947 8.955422301824454 0.0 11.08095083800957 8.556431997369868 0.0 11.38605637029794 8.14602481781131 0.0 11.67596945045831 7.724748370786216 0.0 11.95030324652287 7.293164766830989 0.0 12.20869171401332 6.851849869355165 0.0 12.45079008435528 6.40139252626491 0.0 12.67627532490407 5.942393784261373 0.0 12.88484656996825 5.475466086862149 0.0 13.07622552225569 5.001232457215815 0.0 13.25015682420654 4.520325666800206 0.0 13.4064083987177 4.033387391113276 0.0 13.54477175880396 3.541067353483484 0.0 13.66506228578299 3.044022458141742 0.0 13.76711947561254 2.542915913712058 0.0 13.85080715305155 2.03841634829002 0.0 13.91601365335925 1.531196917290184 0.0 13.96265197128973 1.021934405252652 0.0 13.99065987718335 0.5113083228071612 0.0 14.0 -5.874347834139618e-14 0.0 13.99065987718335 -0.5113083228072786 0.0 13.96265197128972 -1.021934405252769 0.0 13.91601365335924 -1.531196917290301 0.0 13.85080715305153 -2.038416348290124 0.0 13.76711947561252 -2.542915913712161 0.0 13.66506228578297 -3.044022458141845 0.0 13.54477175880394 -3.541067353483585 0.0 13.40640839871767 -4.033387391113377 0.0 13.25015682420652 -4.520325666800294 0.0 13.07622552225565 -5.001232457215901 0.0 12.88484656996822 -5.475466086862223 0.0 12.67627532490403 -5.942393784261458 0.0 12.45079008435524 -6.40139252626498 0.0 12.20869171401328 -6.851849869355235 0.0 11.95030324652283 -7.293164766831058 0.0 11.67596945045827 -7.724748370786272 0.0 11.3860563702979 -8.146024817811366 0.0 11.08095083800953 -8.556431997369922 0.0 10.76105995689943 -8.955422301824497 0.0 10.42681055841292 -9.342463357111376 0.0 10.07864863261192 -9.717038733088895 0.0 9.717038733088856 -10.07864863261196 0.0 9.342463357111326 -10.42681055841297 0.0 8.955422301824454 -10.76105995689947 0.0 8.55643199736987 -11.08095083800957 0.0 8.146024817811321 -11.38605637029793 0.0 7.724748370786227 -11.6759694504583 0.0 7.293164766831011 -11.95030324652286 0.0 6.851849869355187 -12.20869171401331 0.0 6.401392526264922 -12.45079008435527 0.0 5.942393784261396 -12.67627532490406 0.0 5.475466086862173 -12.88484656996824 0.0 5.001232457215851 -13.07622552225568 0.0 4.520325666800242 -13.25015682420653 0.0 4.033387391113324 -13.40640839871768 0.0 3.541067353483521 -13.54477175880396 0.0 3.044022458141792 -13.66506228578298 0.0 2.542915913712108 -13.76711947561253 0.0 2.038416348290069 -13.85080715305154 0.0 1.531196917290234 -13.91601365335924 0.0 1.021934405252702 -13.96265197128972 0.0 0.5113083228072242 -13.99065987718335 0.0 0.0 13.51039852434506 0.0 0.0 13.03620682228467 0.0 0.0 12.57694015883724 0.0 0.0 12.13212856203807 0.0 0.0 11.70131712762521 0.0 0.0 11.28406521434783 0.0 0.0 10.8799460046193 0.0 0.0 10.48854628950087 0.0 0.0 10.10946558024675 0.0 0.0 9.742316234341825 0.0 0.0 9.38672266828737 0.0 0.0 9.042321090529025 0.0 0.0 8.708759447718137 0.0 0.0 8.385696447634174 0.0 0.0 8.072801661018374 0.0 0.0 7.769755046540676 0.0 0.0 7.47624662686603 0.0 0.0 7.191976208217571 0.0 0.0 6.916653018337874 0.0 0.0 6.649995460729688 0.0 0.0 6.391730772851911 0.0 0.0 6.141594848424343 0.0 0.0 5.899331743127098 0.0 0.0 5.664693786072618 0.0 0.0 5.437440878786887 0.0 0.0 5.217340593105535 0.0 0.0 5.004167859917263 0.0 0.0 4.797704623042316 0.0 0.0 4.597739668616144 0.0 0.0 4.404068436687538 0.0 0.0 4.216492982143802 0.0 0.0 4.034821271588283 0.0 0.0 3.858867589692261 0.0 0.0 3.688451964366998 0.0 0.0 3.523400051533196 0.0 0.0 3.363543045254346 0.0 0.0 3.208717433329983 0.0 0.0 3.058764880669326 0.0 0.0 2.913531981943514 0.0 0.0 2.772870185562123 0.0 0.0 2.636635663071662 0.0 0.0 2.504689016356934 0.0 0.0 2.376895321926158 0.0 0.0 2.253123843200493 0.0 0.0 2.133248010666192 0.0 0.0 2.017145186216181 0.0 0.0 1.904696608217483 0.0 0.0 1.795787321680464 0.0 0.0 1.690305853406526 0.0 0.0 1.58814437664542 0.0 0.0 1.489198347268177 0.0 0.0 1.39336659987794 0.0 0.0 1.300551063014481 0.0 0.0 1.210656881806607 0.0 0.0 1.123592031779339 0.0 0.0 1.039267512879118 0.0 0.0 0.957597051342006 0.0 0.0 0.8784971158982362 0.0 0.0 0.8018868031725539 0.0 0.0 0.7276877565382662 0.0 0.0 0.655824070752935 0.0 0.0 0.5862222600553277 0.0 0.0 0.5188111259799051 0.0 0.0 0.4535217121709216 0.0 0.0 0.3902872411065204 0.0 0.0 0.3290430302212606 0.0 0.0 0.2697264533096799 0.0 0.0 0.2122768205708336 0.0 0.0 0.1566353897440642 0.0 0.0 0.1027452341116035 0.0 0.0 0.05055123552233809 0.0 0.0 -0.05055123552233913 0.0 0.0 -0.102745234111601 0.0 0.0 -0.1566353897440585 0.0 0.0 -0.2122768205708314 0.0 0.0 -0.2697264533096789 0.0 0.0 -0.3290430302212632 0.0 0.0 -0.3902872411065204 0.0 0.0 -0.4535217121709213 0.0 0.0 -0.5188111259799045 0.0 0.0 -0.5862222600553291 0.0 0.0 -0.6558240707529396 0.0 0.0 -0.7276877565382689 0.0 0.0 -0.8018868031725613 0.0 0.0 -0.8784971158982426 0.0 0.0 -0.957597051342008 0.0 0.0 -1.03926751287912 0.0 0.0 -1.123592031779341 0.0 0.0 -1.210656881806608 0.0 0.0 -1.300551063014488 0.0 0.0 -1.39336659987795 0.0 0.0 -1.489198347268183 0.0 0.0 -1.588144376645424 0.0 0.0 -1.690305853406527 0.0 0.0 -1.795787321680466 0.0 0.0 -1.904696608217481 0.0 0.0 -2.017145186216181 0.0 0.0 -2.133248010666189 0.0 0.0 -2.25312384320049 0.0 0.0 -2.376895321926153 0.0 0.0 -2.504689016356932 0.0 0.0 -2.636635663071658 0.0 0.0 -2.772870185562113 0.0 0.0 -2.913531981943504 0.0 0.0 -3.058764880669317 0.0 0.0 -3.208717433329972 0.0 0.0 -3.363543045254333 0.0 0.0 -3.523400051533182 0.0 0.0 -3.688451964366981 0.0 0.0 -3.858867589692242 0.0 0.0 -4.034821271588263 0.0 0.0 -4.216492982143784 0.0 0.0 -4.404068436687523 0.0 0.0 -4.597739668616132 0.0 0.0 -4.797704623042314 0.0 0.0 -5.004167859917268 0.0 0.0 -5.217340593105535 0.0 0.0 -5.437440878786888 0.0 0.0 -5.664693786072609 0.0 0.0 -5.8993317431271 0.0 0.0 -6.141594848424338 0.0 0.0 -6.391730772851913 0.0 0.0 -6.649995460729678 0.0 0.0 -6.916653018337882 0.0 0.0 -7.191976208217586 0.0 0.0 -7.476246626866057 0.0 0.0 -7.769755046540698 0.0 0.0 -8.0728016610184 0.0 0.0 -8.38569644763419 0.0 0.0 -8.708759447718156 0.0 0.0 -9.042321090529052 0.0 0.0 -9.386722668287376 0.0 0.0 -9.742316234341832 0.0 0.0 -10.10946558024674 0.0 0.0 -10.48854628950085 0.0 0.0 -10.87994600461927 0.0 0.0 -11.28406521434781 0.0 0.0 -11.70131712762519 0.0 0.0 -12.13212856203804 0.0 0.0 -12.57694015883722 0.0 0.0 -13.03620682228463 0.0 0.0 -13.51039852434506 0.0 0.04357670444129536 0.03245116257256288 0.0 0.05493535260107585 0.7666047149296568 0.0 0.07148239634328757 -0.6942917416208841 0.0 0.08248253054630439 1.635262216962322 0.0 0.08435762245674994 -1.538416985202141 0.0 0.1156303992564487 2.704543327501819 0.0 0.1124854704608618 -2.570316206487321 0.0 0.1452617050953862 -3.773659777029611 0.0 0.1442144943893746 3.774955751480981 0.0 0.1572432614920451 4.908800913479634 0.0 0.2074344588136103 6.262415218470908 0.0 0.2016257288818144 -4.890576635354609 0.0 0.2076836853074191 -6.253842851291258 0.0 0.05033195623880538 0.3600286806497743 0.0 0.05056125193044636 -0.299384741765471 0.0 13.58407530282264 -0.2477557376897921 0.0 13.19611429929409 3.16859378881991 0.0 13.03109843484133 -3.636457513078894 0.0 11.97355278584407 6.418546260965137 0.0 11.73722548939928 -6.841426779306202 0.0 0.2492404611635211 7.64132578032738 0.0 0.2261029042985463 -7.608959240101711 0.0 0.07582981841780345 1.170406645071864 0.0 0.07189680311373792 -1.081217682183595 0.0 10.2773629854472 8.880632692329321 0.0 9.861561869994144 -9.278181306647143 0.0 8.08431690043171 10.88740285253761 0.0 7.695303014708814 -11.17108760467418 0.0 0.2487134594247422 8.93476914118029 0.0 0.2826300565581761 -8.870114252140628 0.0 0.1278190498641285 -3.133741156999645 0.0 0.0939892698689535 2.071256214307113 0.0 0.09906819006190393 -1.963582869147497 0.0 5.972286191017459 12.17470813911497 0.0 5.52643574326472 -12.40359985785169 0.0 0.3148844599889991 -10.30829997324037 0.0 0.3168261630969491 10.3058967588799 0.0 4.152570986372316 12.90133944415965 0.0 3.660670788527924 -13.05696155414483 0.0 0.1815724190029657 5.555533686659039 0.0 0.1897366761426502 -5.523767276197764 0.0 0.1560703947232938 4.307015012533432 0.0 0.1795092058289462 -4.31080079071106 0.0 0.1034464925660492 3.133614801905967 0.0 0.05935693292455024 0.5589374200290079 0.0 0.05062196864436785 -0.4764319914802829 0.0 0.04742856819525265 0.1844561051574486 0.0 0.05275710998833638 -0.1437074104334967 0.0 0.3391039852149476 11.46836276995712 0.0 0.3547034465321275 -11.49071252600466 0.0 12.71642160607041 4.553982379296938 0.0 9.226821235351073 9.936064560896217 0.0 13.50345153043528 1.244394384926005 0.0 11.1904090987179 7.631835931240509 0.0 13.36838054937825 -2.249758714669938 0.0 12.58358780735113 -5.070301687202366 0.0 10.88889613643273 -8.068247595030956 0.0 8.896892035667534 -10.23095186600847 0.0 2.70508506689572 13.28211988321901 0.0 2.211542389429346 -13.37911809050983 0.0 0.3791558945841764 -12.35453436043762 0.0 0.314471142089257 9.539190092451516 0.0 0.3465553147733846 -9.594135912492106 0.0 0.3597457889267517 12.38123933925148 0.0 0.249492
[...]
POINT_DATA 5247
FIELD FieldData 1
node_groups 1 5247 long
0 201 201 201 201 201 201 201 201 201 201 201 201 201 201 201 201 201 201 201 201 201 201 201 201 201 201 201 201 201 201 201 201 201 201 201 201 201 201 201 201 201 201 201 201 201 201 201 201 201 201 201 201 201 201 201 201 201 201 201 201 201 201 201 201 201 201 201 201 201 201 201 201 201 201 201 201 201 201 201 201 201 201 201 201 201 201 201 303 303 303 303 303 303 303 303 303 303 303 303 303 303 303 303 303 303 303 303 303 303 303 303 303 303 303 303 303 303 303 303 303 303 303 303 303 303 303 303 303 303 303 303 303 303 303 303 303 303 303 303 303 303 303 303 303 303 303 303 303 303 303 303 303 303 303 303 303 303 303 303 303 303 303 303 303 303 303 303 303 303 303 303 303 303 303 303 303 303 303 303 303 303 303 303 303 303 303 303 303 303 303 303 303 303 303 303 303 303 303 303 303 303 303 303 303 303 303 303 303 303 303 303 303 303 303 303 303 303 303 303 303 303 303 303 303 303 303 303 303 303 303 303 303 303 303 303 303 303 303 303 303 303 303 303 303 303 303 303 303 303 303 303 303 303 303 303 303 303 303 303 303 303 303 303 303 303 303 303 303 303 303 303 303 303 303 303 303 303 303 303 303 303 303 303 303 303 303 303 303 303 303 303 303 303 303 303 303 303 303 303 303 303 303 303 303 303 303 303 303 303 303 303 303 303 303 303 303 303 303 303 303 303 303 303 303 303 303 303 303 303 303 303 303 303 303 303 303 303 303 303 303 303 303 303 303 303 303 303 303 303 303 303 303 303 303 303 303 303 303 303 303 303 303 303 303 303 303 303 303 303 303 303 303 303 303 303 303 303 303 303 303 303 303 303 303 303 303 303 303 303 303 303 303 303 303 303 303 303 303 303 303 303 303 303 303 303 303 303 303 303 303 303 303 303 303 303 303 303 303 303 303 303 303 303 303 303 303 303 303 303 303 303 303 303 303 303 303 303 303 303 303 303 303 303 303 303 303 303 303 303 303 303 303 303 303 303 303 303 303 303 303 303 303 303 303 303 303 303 303 303 303 303 303 303 303 303 303 303 303 303 303 303 303 303 303 303 303 303 303 303 303 303 303 303 303 303 303 303 303 303 303 303 303 303 303 303 303 303 303 303 303 303 303 303 303 303 303 303 303 303 303 303 303 303 303 303 303 303 303 303 303 303 303 303 303 303 303 303 303 303 303 303 303 303 303 303 303 303 303 303 303 303 303 303 303 303 303 303 303 303 303 303 303 303 303 303 303 303 303 303 303 303 303 303 303 303 303 303 303 303 303 303 303 303 303 303 303 303 303 303 303 303 303 303 303 303 303 303 303 303 303 303 303 303 303 303 303 303 303 303 303 303 303 303 303 303 303 303 303 303 303 303 303 303 303 303 303 303 303 303 303 303 303 303 303 303 303 303 303 303 303 303 303 303 303 303 303 303 303 303 303 303 303 303 303 303 303 303 303 303 303 303 303 303 303 303 303 303 303 303 303 303 303 303 303 303 303 303 303 303 303 303 303 303 303 303 303 303 303 303 303 303 303 303 303 303 303 303 303 303 303 303 303 303 303 303 303 303 303 303 303 303 303 303 303 303 303 303 303 303 303 303 303 303 303 303 303 303 303 303 303 303 303 303 303 303 303 303 303 303 303 303 303 303 303 303 303 303 303 303 303 303 303 303 303 303 303 303 303 303 303 303 303 303 303 303 303 303 303 303 303 303 303 303 303 303 303 303 303 303 303 303 303 303 303 303 303 303 303 303 303 303 303 303 303 303 303 303 303 303 303 303 303 303 303 303 303 303 303 303 303 303 303 303 303 303 303 303 303 303 303 303 303 303 303 303 303 303 303 303 303 303 303 303 303 303 303 303 303 303 303 303 303 303 303 303 303 303 303 303 303 303 303 303 303 303 303 303 303 303 303 303 303 303 303 303 303 303 303 303 303 303 303 303 303 303 303 303 303 303 303 303 303 303 303 303 303 303 303 303 303 303 303 303 303 303 303 303 303 303 303 303 303 303 303 303 303 303 303 303 303 303 303 303 303 303 303 303 303 303 303 303 303 303 303 303 303 303 303 303 303 303 303 303 303 303 303 303 303 303 303 303 303 303 303 303 303 303 303 303 303 303 303 303 303 303 303 303 303 303 303 303 303 303 303 303 303 303 303 303 303 303 303 303 303 303 303 303 303 303 303 303 303 303 303 303 303 303 303 303 303 303 303 303 303 303 303 303 303 303 303 303 303 303 303 303 303 303 303 303 303 303 303 303 303 303 303 303 303 303 303 303 303 303 303 303 303 303 303 303 303 303 303 303 303 303 303 303 303 303 303 303 303 303 303 303 303 303 303 303 303 303 303 303 303 303 303 303 303 303 303 303 303 303 303 303 303 303 303 303 303 303 303 303 303 303 303 303 303 303 303 303 303 303 303 303 303 303 303 303 303 303 303 303 303 303 303 303 303 303 303 303 303 303 303 303 303 303 303 303 303 303 303 303 303 303 303 303 303 303 303 303 303 303 303 303 303 303 303 303 303 303 303 303 303 303 303 303 303 303 303 303 303 303 303 303 303 303 303 303 303 303 303 303 303 303 303 303 303 303 303 303 303 303 303 303 303 303 303 303 303 303 303 303 303 303 303 303 303 303 303 303 303 303 303 303 303 303 303 303 303 303 303 303 303 303 303 303 303 303 303 303 303 303 303 303 303 303 303 303 303 303 303 303 303 303 303 303 303 303 303 303 303 303 303 303 303 303 303 303 303 303 303 303 303 303 303 303 303 303 303 303 303 303 303 303 303 303 303 303 303 303 303 303 303 303 303 303 303 303 303 303 303 303 303 303 303 303 303 303 303 303 303 303 303 303 303 303 303 303 303 303 303 303 303 303 303 303 303 303 303 303 303 303 303 303 303 303 303 303 303 303 303 303 303 303 303 303 303 303 303 303 303 303 303 303 303 303 303 303 303 303 303 303 303 303 303 303 303 303 303 303 303 303 303 303 303 303 303 303 303 303 303 303 303 303 303 303 303 303 303 303 303 303 303 303 303 303 303 303 303 303 303 303 303 303 303 303 303 303 303 303 303 303 303 303 303 303 303 303 303 303 303 303 303 303 303 303 303 303 303 303 303 303 303 303 303 303 303 303 303 303 303 303 303 303 303 303 303 303 303 303 303 303 303 303 303 303 303 303 303 303 303 303 303 303 303 303 303 303 303 303 303 303 303 303 303 303 303 303 303 303 303 303 303 303 303 303 303 303 303 303 303 303 303 303 303 303 303 303 303 303 303 303 303 303 303 303 303 303 303 303 303 303 303 303 303 303 303 303 303 303 303 303 303 303 303 303 303 303 303 303 303 303 303 303 303 303 303 303 303 303 303 303 303 303 303 303 303 303 303 303 303 303 303 303 303 303 303 303 303 303 303 303 303 303 303 303 303 303 303 303 303 303 303 303 303 303 303 303 303 303 303 303 303 303 303 303 303 303 303 303 303 303 303 303 303 303 303 303 303 303 303 303 303 303 303 303 303 303 303 303 303 303 303 303 303 303 303 303 303 303 303 303 303 303 303 303 303 303 303 303 303 303 303 303 303 303 303 303 303 303 303 303 303 303 303 303 303 303 303 303 303 303 303 303 303 303 303 303 303 303 303 303 303 303 303 303 303 303 303 303 303 303 303 303 303 303 303 303 303 303 303 303 303 303 303 303 303 303 303 303 303 303 303 303 303 303 303 303 303 303 303 303 303 303 303 303 303 303 303 303 303 303 303 303 303 303 303 303 303 303 303 303 303 303 303 303 303 303 303 303 303 303 303 303 303 303 303 303 303 303 303 303 303 303 303 303 303 303 303 303 303 303 303 303 303 303 303 303 303 303 303 303 303 303 303 303 303 303 303 303 303 303 303 303 303 303 303 303 303 303 303 303 303 303 303 303 303 303 303 303 303 303 303 303 303 303 303 303 303 303 303 303 303 303 303 303 303 303 303 303 303 303 303 303 303 303 303 303 303 303 303 303 303 303 303 303 303 303 303 303 303 303 303 303 303 303 303 303 303 303 303 303 303 303 303 303 303 303 303 303 303 303 303 303 303 303 303 303 303 303 303 303 303 303 303 303 303 303 303 303 303 303 303 303 303 303 303 303 303 303 303 303 303 303 303 303 303 303 303 303 303 303 303 303 303 303 303 303 303 303 303 303 303 303 303 303 303 303 303 303 303 303 303 303 303 303 303 303 303 303 303 303 303 303 303 303 303 303 303 303 303 303 303 303 303 303 303 303 303 303 303 303 303 303 303 303 303 303 303 303 303 303 303 303 303 303 303 303 303 303 303 303 303 303 303 303 303 303 303 303 303 303 303 303 303 303 303 303 303 303 303 303 303 303 303 303 303 303 303 303 303 303 303 303 303 303 303 303 303 303 303 303 303 303 303 303 303 303 303 303 303 303 303 303 303 303 303 303 303 303 303 303 303 303 303 303 303 303 303 303 303 303 303 303 303 303 303 303 303 303 303 303 303 303 303 303 303 303 303 303 303 303 303 303 303 303 303 303 303 303 303 303 303 303 303 303 303 303 303 303 303 303 303 303 303 303 303 303 303 303 303 303 303 303 303 303 303 303 303 303 303 303 303 303 303 303 303 303 303 303 303 303 303 303 303 303 303 303 303 303 303 303 303 303 303 303 303 303 303 303 303 303 303 303 303 303 303 303 303 303 303 303 303 303 303 303 303 303 303 303 303 303 303 303 303 303 303 303 303 303 303 303 303 303 303 303 303 303 303 303 303 303 303 303 303 303 303 303 303 303 303 303 303 303 303 303 303 303 303 303 303 303 303 303 303 303 303 303 303 303 303 303 303 303 303 303 303 303 303 303 303 303 303 303 303 303 303 303 303 303 303 303 303 303 303 303 303 303 303 303 303 303 303 303 303 303 303 303 303 303 303 303 303 303 303 303 303 303 303 303 303 303 303 303 303 303 303 303 303 303 303 303 303 303 303 303 303 303 303 303 303 303 303 303 303 303 303 303 303 303 303 303 303 303 303 303 303 303 303 303 303 303 303 303 303 303 303 303 303 303 303 303 303 303 303 303 303 303 303 303 303 303 303 303 303 303 303 303 303 303 303 303 303 303 303 303 303 303 303 303 303 303 303 303 303 303 303 303 303 303 303 303 303 303 303 303 303 303 303 303 303 303 303 303 303 303 303 303 303 303 303 303 303 303 303 303 303 303 303 303 303 303 303 303 303 303 303 303 303 303 303 303 303 303 303 303 303 303 303 303 303 303 303 303 303 303 303 303 303 303 303 303 303 303 303 303 303 303 303 303 303 303 303 303 303 303 303 303 303 303 303 303 303 303 303 303 303 303 303 303 303 303 303 303 303 303 303 303 303 303 303 303 303 303 303 303 303 303 303 303 303 303 303 303 303 303 303 303 303 303 303 303 303 303 303 303 303 303 303 303 303 303 303 303 303 303 303 303 303 303 303 303 303 303 303 303 303 303 303 303 303 303 303 303 303 303 303 303 303 303 303 303 303 303 303 303 303 303 303 303 303 303 303 303 303 303 303 303 303 303 303 303 303 303 303 303 303 303 303 303 303 303 303 303 303 303 303 303 303 303 303 303 303 303 303 303 303 303 303 303 303 303 303 303 303 303 303 303 303 303 303 303 303 303 303 303 303 303 303 303 303 303 303 303 303 303 303 303 303 303 303 303 303 303 303 303 303 303 303 303 303 303 303 303 303 303 303 303 303 303 303 303 303 303 303 303 303 303 303 303 303 303 303 303 303 303 303 303 303 303 303 303 303 303 303 303 303 303 303 303 303 303 303 303 303 303 303 303 303 303 303 303 303 303 303 303 303 303 303 303 303 303 303 303 303 303 303 303 303 303 303 303 303 303 303 303 303 303 303 303 303 303 303 303 303 303 303 303 303 303 303 303 303 303 303 303 303 303 303 303 303 303 303 303 303 303 303 303 303 303 303 303 303 303 303 303 303 303 303 303 303 303 303 303 303 303 303 303 303 303 303 303 303 303 303 303 303 303 303 303 303 303 303 303 303 303 303 303 303 303 303 303 303 303 303 303 303 303 303 303 303 303 303 303 303 303 303 303 303 303 303 303 303 303 303 303 303 303 303 303 303 303 303 303 303 303 303 303 303 303 303 303 303 303 303 303 303 303 303 303 303 303 303 303 303 303 303 303 303 303 303 303 303 303 303 303 303 303 303 303 303 303 303 303 303 303 303 303 303 303 303 303 303 303 303 303 303 303 303 303 303 303 303 303 303 303 303 303 303 303 303 303 303 303 303 303 303 303 303 303 303 303 303 303 303 303 303 303 303 303 303 303 303 303 303 303 303 303 303 303 303 303 303 303 303 303 303 303 303 303 303 303 303 303 303 303 303 303 303 303 303 303 303 303 303 303 303 303 303 303 303 303 303 303 303 303 303 303 303 303 303 303 303 303 303 303 303 303 303 303 303 303 303 303 303 303 303 303 303 303 303 303 303 303 303 303 303 303 303 303 303 303 303 303 303 303 303 303 303 303 303 303 303 303 303 303 303 303 303 303 303 303 303 303 303 303 303 303 303 303 303 303 303 303 303 303 303 303 303 303 303 303 303 303 303 303 303 303 303 303 303 303 303 303 303 303 303 303 303 303 303 303 303 303 303 303 303 303 303 303 303 303 303 303 303 303 303 303 303 303 303 303 303 303 303 303 303 303 303 303 303 303 303 303 303 303 303 303 303 303 303 303 303 303 303 303 303 303 303 303 303 303 303 303 303 303 303 303 303 303 303 303 303 303 303 303 303 303 303 303 303 303 303 303 303 303 303 303 303 303 303 303 303 303 303 303 303 303 303 303 303 303 303 303 303 303 303 303 303 303 303 303 303 303 303 303 303 303 303 303 303 303 303 303 303 303 303 303 303 303 303 303 303 303 303 303 303 303 303 303 303 303 303 303 303 303 303 303 303 303 303 303 303 303 303 303 303 303 303 303 303 303 303 303 303 303 303 303 303 303 303 303 303 303 303 303 303 303 303 303 303 303 303 303 303 303 303 303 303 303 303 303 303 303 303 303 303 303 303 303 303 303 303 303 303 303 303 303 303 303 303 303 303 303 303 303 303 303 303 303 303 303 303 303 303 303 303 303 303 303 303 303 303 303 303 303 303 303 303 303 303 303 303 303 303 303 303 303 303 303 303 303 303 303 303 303 303 303 303 303 303 303 303 303 303 303 303 303 303 303 303 303 303 303 303 303 303 303 303 303 303 303 303 303 303 303 303 303 303 303 303 303 303 303 303 303 303 303 303 303 303 303 303 303 303 303 303 303 303 303 303 303 303 303 303 303 303 303 303 303 303 303 303 303 303 303 303 303 303 303 303 303 303 303 303 303 303 303 303 303 303 303 303 303 303 303 303 303 303 303 303 303 303 303 303 303 303 303 303 303 303 303 303 303 303 303 303 303 303 303 303 303 303 303 303 303 303 303 303 303 303 303 303 303 303 303 303 303 303 303 303 303 303 303 303 303 303 303 303 303 303 303 303 303 303 303 303 303 303 303 303 303 303 303 303 303 303 303 303 303 303 303 303 303 303 303 303 303 303 303 303 303 303 303 303 303 303 303 303 303 303 303 303 303 303 303 303 303 303 303 303 303 303 303 303 303 303 303 303 303 303 303 303 303 303 303 303 303 303 303 303 303 303 303 303 303 303 303 303 303 303 303 303 303 303 303 303 303 303 303 303 303 303 303 303 303 303 303 303 303 303 303 303 303 303 303 303 303 303 303 303 303 303 303 303 303 303 303 303 303 303 303 303 303 303 303 303 303 303 303 303 303 303 303 303 303 303 303 303 303 303 303 303 303 303 303 303 303 303 303 303 303 303 303 303 303 303 303 303 303 303 303 303 303 303 303 303 303 303 303 303 303 303 303 303 303 303 303 303 303 303 303 303 303 303 303 303 303 303 303 303 303 303 303 303 303 303 303 303 303 303 303 303 303 303 303 303 303 303 303 303 303 303 303 303 303 303 303 303 303 303 303 303 303 303 303 303 303 303 303 303 303 303 303 303 303 303 303 303 303 303 303 303 303 303 303 303 303 303 303 303 303 303 303 303 303 303 303 303 303 303 303 303 303 303 303 303 303 303 303 303 303 303 303 303 303 303 303 303 303 303 303 303 303 303 303 303 303 303 303 303 303 303 303 303 303 303 303 303 303 303 303 303 303 303 303 303 303 303 303 303 303 303 303 303 303 303 303 303 303 303 303 303 303 303 303 303 303 303 303 303 303 303 303 303 303 303 303 303 303 303 303 303 303 303 303 303 303 303 303 303 303 303 303 303 303 303 303 303 303 303 303 303 303 303 303 303 303 303 303 303 303 303 303 303 303 303 303 303 303 303 303 303 303 303 303 303 303 303 303 303 303 303 303 303 303 303 303 303 303 303 303 303 303 303 303 303 303 303 303 303 303 303 303 303 303 303 303 303 303 303 303 303 303 303 303 303 303 303 303 303 303 303 303 303 303 303 303 303 303 303 303 303 303 303 303 303 303 303 303 303 303 303 303 303 303 303 303 303 303 303 303 303 303 303 303 303 303 303 303 303 303 303 303 303 303 303 303 303 303 303 303 303 303 303 303 303 303 303 303 303 303 303 303 303 303 303 303 303 303 303 303 303 303 303 303 303 303 303 303 303 303 303 303 303 303 303 303 303 303 303 303 303 303 303 303 303 303 303 303 303 303 303 303 303 303 303 303 303 303 303 303 303 303 303 303 303 303 303 303 303 303 303 303 303 303 303 303 303 303 303 303 303 303 303 303 303 303 303 303 303 303 303 303 303 303 303 303 303 303 303 303 303 303 303 303 303 303 303 303 303 303 303 303 303 303 303 303 303 303 303 303 303 303 303 303 303 303 303 303 303 303 303 303 303 303 303 303 303 303 303 303 303 303 303 303 303 303 303 303 303 303 303 303 303 303 303 303 303 303 303 303 303 303 303 303 303 303 303 303 303 303 303 303 303 303 303 303 303 303 303 303 303 303 303 303 303 303 303 303 303 303 303 303 303 303 303 303 303 303 303 303 303 303 303 303 303 303 303 303 303 303 303 303 303 303 303 303 303 303 303 303 303 303 303 303 303 303 303 303 303 303 303 303 303 303 303 303 303 303 303 303 303 303 303 303 303 303 303 303 303 303 303 303 303 303 303 303 303 303 303 303 303 303 303 303 303 303 303 303 303 303 303 303 303 303 303 303 303 303 303 303 303 303 303 303 303 303 303 303 303 303 303 303 303 303 303 303 303 303 303 303 303 303 303 303 303 303 303 303 303 303 303 303 303 303 303 303 303 303 303 303 303 303 303 303 303 303 303 303 303 303 303 303 303 303 303 303 303 303 303 303 303 303 303 303 303 303 303 303 303 303 303 303 303 303 303 303 303 303 303 303 303 303 303 303 303 303 303 303 303 303 303 303 303 303 303 303 303 303 303 303 303 303 303 303 303 303 303 303 303 303 303 303 303 303 303 303 303 303 303 303 303 303 303 303 303 303 303 303 303 303 303 303 303 303 303 303 303 303 303 303 303 303 303 303 303 303 303 303 303 303 303 303 303 303 303 303 303 303 303 303 303 303 303 303 303 303 303 303 303 303 303 303 303 303 303 303 303 303 303 303 303 303 303 303 303 303 303 303 303 303 303 303 303 303 303 303 303 303 303 303 303 303 303 303 303 303 303 303 303 303 303 303 303 303 303 303 303 303 303 303 303 303 303 303 303 303 303 303 303 303 303 303 303 303 303 303 303 303 303 303 303 303 303 303 303 303 303 303 303 303 303 303 303 303 303 303 303 303 303 303 303 303 303 303 303 303 303 303 303 303 303 303 303 303 303 303 303 303 303 303 303 303 303 303 303 303 303 303 303 303 303 303 303 303 303 303 303 303 303 303 303 303 303 303 303 303 303 303 303 303 303 303 303 303 303 303 303 303 303 303 303 303 303 303 303 303 303 303 303 303 303 303 303 303 303 303 303 303 303 303 303 303 303 303 303 303 303 303 303 303 303 303 303 303 303 303 303 303 303 303 303 303 303 303 303 303 303 303 303 303 303 303 303 303 303 303 303 303 303 303 303 303 303 303 303 303 303 303 303 303 303 303 303 303 303 303 303 303 303 303 303 303 303 303 303 303 303 303 303 303 303 303 303 303 303 303 303 303 303 303 303 303 303 303 303 303 303 303 303 303 303 303 303 303 303 303 303 303 303 303 303 303 303 303 303 303 303 303 303 303 303 303 303 303 303 303 303 303 303 303 303 303 303 303 303 303 303 303 303 303 303 303 303 303 303 303 303 303 303 303 303 303 303 303 303 303 303 303 303 303 303 303 303 303 303 303 303 303 303 303 303 303 303 303 303 303 303 303 303 303 303 303 303 303 303 303 303 303 303 303 303 303 303 303 303 303 303 303 303 303 303 303 303 303 303 303 303 303 303 303 303 303 303 303 303 303 303 303 303 303 303 303 303 303 303 303 303 303 303 303 303 303 303 303 303 303 303 303 303 303 303 303 303 303 303 303 303 303 303 303 303 303 303 303 303 303 303 303 303 303 303 303 303 303 303 303 303 303 303 303 303 303 303 303 303 303 303 303 303 303 303 303 303 303 303 303 303 303 303 303 303 303 303 303 303 303 303 303 303 303 303 303 303 303 303 303 303 303 303 303 303 303 303 303 303 303 303 303 303 303 303 303 303 303 303 303 303 303 303 303 303 303 303 303 303 303 303 303 303 303 303 303 303 303 303 303 303 303 303 303 303 303 303 303 303 303 303 303 303 303 303 303 303 303 303 303 303 303 303 303 303 303 303 303 303 303 303 303 303 303 303 303 303 303 303 303 303 303 303 303 303 303 303 303 303 303 303 303 303 303 303 303 303 303 303 303 303 303 303 303 303 303 303 303 303 303 303 303 303 303 303 303 303 303 303 303 303 303 303 303 303 303 303 303 303 303 303 303 303 303 303 303 303 303 303 303 303 303 303 303 303 303 303 303 303 303 303 303 303 303 303 303 303 303 303 303 303 303 303 303 303 303 303 303 303 303 303 303 303 303 303 303 303 303 303 303 303 303 303 303 303 303 303 303 303 303 303 303 303 303 303 303 303 303 303 303 303 303 303 303 303 303 303 303 303 303 303 303 303 303 303 303 303 303 303 303 303 303 303 303 303 303 303 303 303 303 303 303 303 303 303 303 303 303 303 303 303 303 303 303 303 303 