# vtk DataFile Version 4.2
written by meshio v4.4.6
ASCII
DATASET UNSTRUCTURED_GRID
POINTS 2244 double
0.0 0.0154 -0.021685 0.0 0.0197 -0.021685 0.0 0.0197 0.021685 0.0 0.0154 0.021685 0.0 0.03041 -0.039905 0.0 0.0347075 -0.039905 0.0 0.0347075 0.039925 0.0 0.03041 0.039925 0.0 0.0197 -0.01686611111111111 0.0 0.0197 -0.01204722222222222 0.0 0.0197 -0.007228333333333335 0.0 0.0197 -0.00240944444444445 0.0 0.0197 0.002409444444444443 0.0 0.0197 0.00722833333333333 0.0 0.0197 0.01204722222222221 0.0 0.0197 0.01686611111111111 0.0 0.0154 0.01686611111111111 0.0 0.0154 0.01204722222222222 0.0 0.0154 0.007228333333333335 0.0 0.0154 0.00240944444444445 0.0 0.0154 -0.002409444444444443 0.0 0.0154 -0.00722833333333333 0.0 0.0154 -0.01204722222222221 0.0 0.0154 -0.01686611111111111 -0.004758861713374196 0.01464627035094536 -0.021685 -0.009051892885304095 0.01245886171337418 -0.021685 -0.0124588617133742 0.00905189288530407 -0.021685 -0.01464627035094537 0.004758861713374165 -0.021685 -0.0154 -1.957394345972943e-17 -0.021685 -0.01464627035094536 -0.004758861713374206 -0.021685 -0.01245886171337418 -0.009051892885304096 -0.021685 -0.009051892885304067 -0.01245886171337421 -0.021685 -0.004758861713374173 -0.01464627035094537 -0.021685 1.863096542438597e-17 -0.0154 -0.021685 0.004758861713374201 -0.01464627035094536 -0.021685 0.00905189288530409 -0.01245886171337419 -0.021685 0.01245886171337418 -0.0090518928853041 -0.021685 0.01464627035094536 -0.004758861713374193 -0.021685 0.0154 1.084901355735154e-17 -0.021685 0.01464627035094536 0.004758861713374201 -0.021685 0.01245886171337418 0.009051892885304095 -0.021685 0.00905189288530409 0.01245886171337419 -0.021685 0.004758861713374181 0.01464627035094537 -0.021685 -0.004899190777147631 0.01908108827423403 -0.021685 -0.009490547379803774 0.01726324159686412 -0.021685 -0.01348557798679515 0.01436068196020182 -0.021685 -0.01663326013238968 0.01055578786108626 -0.021685 -0.01873581337101451 0.006087634789186506 -0.021685 -0.01966112655003694 0.001236973234727537 -0.021685 -0.01935105883935518 -0.003691411897338697 -0.021685 -0.01782509293358062 -0.008387852043831846 -0.021685 -0.01517911088268311 -0.01255725259804911 -0.021685 -0.01157936947016179 -0.01593763478918641 -0.021685 -0.007252053687888232 -0.01831659677199852 -0.021685 -0.002469064701216869 -0.0195446596158952 -0.021685 0.002469064701216725 -0.01954465961589522 -0.021685 0.007252053687888098 -0.01831659677199857 -0.021685 0.01157936947016167 -0.0159376347891865 -0.021685 0.01517911088268302 -0.01255725259804922 -0.021685 0.01782509293358056 -0.008387852043831969 -0.021685 0.01935105883935516 -0.00369141189733881 -0.021685 0.01966112655003695 0.001236973234727428 -0.021685 0.01873581337101454 0.006087634789186427 -0.021685 0.01663326013238971 0.0105557878610862 -0.021685 0.01348557798679518 0.01436068196020179 -0.021685 0.009490547379803807 0.0172632415968641 -0.021685 0.00489919077714765 0.01908108827423403 -0.021685 -0.004899190777147631 0.01908108827423403 0.021685 -0.009490547379803774 0.01726324159686412 0.021685 -0.01348557798679515 0.01436068196020182 0.021685 -0.01663326013238968 0.01055578786108626 0.021685 -0.01873581337101451 0.006087634789186506 0.021685 -0.01966112655003694 0.001236973234727537 0.021685 -0.01935105883935518 -0.003691411897338697 0.021685 -0.01782509293358062 -0.008387852043831846 0.021685 -0.01517911088268311 -0.01255725259804911 0.021685 -0.01157936947016179 -0.01593763478918641 0.021685 -0.007252053687888232 -0.01831659677199852 0.021685 -0.002469064701216869 -0.0195446596158952 0.021685 0.002469064701216725 -0.01954465961589522 0.021685 0.007252053687888098 -0.01831659677199857 0.021685 0.01157936947016167 -0.0159376347891865 0.021685 0.01517911088268302 -0.01255725259804922 0.021685 0.01782509293358056 -0.008387852043831969 0.021685 0.01935105883935516 -0.00369141189733881 0.021685 0.01966112655003695 0.001236973234727428 0.021685 0.01873581337101454 0.006087634789186427 0.021685 0.01663326013238971 0.0105557878610862 0.021685 0.01348557798679518 0.01436068196020179 0.021685 0.009490547379803807 0.0172632415968641 0.021685 0.00489919077714765 0.01908108827423403 0.021685 -0.004758861713374196 0.01464627035094536 0.021685 -0.009051892885304095 0.01245886171337418 0.021685 -0.0124588617133742 0.00905189288530407 0.021685 -0.01464627035094537 0.004758861713374165 0.021685 -0.0154 -1.957394345972943e-17 0.021685 -0.01464627035094536 -0.004758861713374206 0.021685 -0.01245886171337418 -0.009051892885304096 0.021685 -0.009051892885304067 -0.01245886171337421 0.021685 -0.004758861713374173 -0.01464627035094537 0.021685 1.863096542438597e-17 -0.0154 0.021685 0.004758861713374201 -0.01464627035094536 0.021685 0.00905189288530409 -0.01245886171337419 0.021685 0.01245886171337418 -0.0090518928853041 0.021685 0.01464627035094536 -0.004758861713374193 0.021685 0.0154 1.084901355735154e-17 0.021685 0.01464627035094536 0.004758861713374201 0.021685 0.01245886171337418 0.009051892885304095 0.021685 0.00905189288530409 0.01245886171337419 0.021685 0.004758861713374181 0.01464627035094537 0.021685 0.0 0.0347075 -0.03491562499999999 0.0 0.0347075 -0.02992624999999998 0.0 0.0347075 -0.02493687499999998 0.0 0.0347075 -0.01994749999999997 0.0 0.0347075 -0.01495812499999996 0.0 0.0347075 -0.009968749999999964 0.0 0.0347075 -0.004979374999999953 0.0 0.0347075 1.000000000006551e-05 0.0 0.0347075 0.004999375000000056 0.0 0.0347075 0.009988750000000046 0.0 0.0347075 0.01497812500000004 0.0 0.0347075 0.01996750000000003 0.0 0.0347075 0.02495687500000003 0.0 0.0347075 0.02994625000000002 0.0 0.0347075 0.03493562500000001 0.0 0.03041 0.034935625 0.0 0.03041 0.02994624999999999 0.0 0.03041 0.02495687499999998 0.0 0.03041 0.01996749999999997 0.0 0.03041 0.01497812499999997 0.0 0.03041 0.00998874999999997 0.0 0.03041 0.004999374999999959 0.0 0.03041 9.999999999940612e-06 0.0 0.03041 -0.00497937500000005 0.0 0.03041 -0.00996875000000004 0.0 0.03041 -0.01495812500000003 0.0 0.03041 -0.01994750000000002 0.0 0.03041 -0.02493687500000002 0.0 0.03041 -0.02992625000000002 0.0 0.03041 -0.03491562500000001 -0.004876502938075906 0.03001632798419255 -0.039905 -0.00962670701156475 0.02884550783519323 -0.039905 -0.01412758443013054 0.02692786317985759 -0.039905 -0.01826256483283454 0.02431306000746645 -0.039905 -0.02192455439925194 0.02106882034669184 -0.039905 -0.02501870952316713 0.01727916830062717 -0.039905 -0.02746489321215561 0.01304225386665288 -0.039905 -0.02919975059359371 0.008467810903060202 -0.039905 -0.03017834977258083 0.00367431507976188 -0.039905 -0.03037534554441572 -0.001214084579326152 -0.039905 -0.02978563582208495 -0.006070781090791669 -0.039905 -0.02842449377763664 -0.01076998856609299 -0.039905 -0.02632717227504698 -0.01518999999999991 -0.039905 -0.02354799083956077 -0.01921633941809938 -0.039905 -0.02015892881052027 -0.02274472674440139 -0.039905 -0.01624776111428525 -0.0256837786005313 -0.039905 -0.01191578493974638 -0.02795737508722821 -0.039905 -0.007275196194341858 -0.02950663124975196 -0.039905 -0.00244618368898854 -0.03029142216727998 -0.039905 0.002446183688988398 -0.03029142216727999 -0.039905 0.007275196194341694 -0.029506631249752 -0.039905 0.01191578493974625 -0.02795737508722827 -0.039905 0.01624776111428513 -0.02568377860053138 -0.039905 0.02015892881052016 -0.02274472674440149 -0.039905 0.0235479908395607 -0.01921633941809946 -0.039905 0.02632717227504694 -0.01518999999999999 -0.039905 0.02842449377763662 -0.01076998856609307 -0.039905 0.02978563582208495 -0.006070781090791703 -0.039905 0.03037534554441572 -0.001214084579326166 -0.039905 0.03017834977258083 0.003674315079761879 -0.039905 0.02919975059359369 0.008467810903060246 -0.039905 0.02746489321215558 0.01304225386665293 -0.039905 0.02501870952316708 0.01727916830062724 -0.039905 0.02192455439925191 0.02106882034669188 -0.039905 0.01826256483283449 0.02431306000746648 -0.039905 0.01412758443013054 0.02692786317985759 -0.039905 0.00962670701156478 0.02884550783519322 -0.039905 0.00487650293807587 0.03001632798419256 -0.039905 -0.004937969100987301 0.03435432947966367 -0.039905 -0.00977541539100549 0.03330200745198903 -0.039905 -0.01441386241363293 0.03157195615881341 -0.039905 -0.01875888476366557 0.02919939445540993 -0.039905 -0.02272203031606649 0.02623262085615691 -0.039905 -0.02622262085615683 0.02273203031606658 -0.039905 -0.02918939445540987 0.01876888476366566 -0.039905 -0.03156195615881336 0.01442386241363304 -0.039905 -0.03329200745198899 0.009785415391005605 -0.039905 -0.03434432947966365 0.004947969100987432 -0.039905 -0.0346975 1.00000000001331e-05 -0.039905 -0.03434432947966368 -0.004927969100987161 -0.039905 -0.03329200745198907 -0.009765415391005344 -0.039905 -0.03156195615881347 -0.0144038624136328 -0.039905 -0.02918939445541001 -0.01874888476366544 -0.039905 -0.026222620856157 -0.02271203031606638 -0.039905 -0.02272203031606668 -0.02621262085615674 -0.039905 -0.01875888476366578 -0.02917939445540979 -0.039905 -0.01441386241363317 -0.03155195615881329 -0.039905 -0.009775415391005756 -0.03328200745198895 -0.039905 -0.004937969100987571 -0.03433432947966363 -0.039905 -2.816073546892474e-16 -0.0346875 -0.039905 0.004937969100987014 -0.0343343294796637 -0.039905 0.009775415391005201 -0.03328200745198911 -0.039905 0.01441386241363265 -0.03155195615881354 -0.039905 0.0187588847636653 -0.0291793944554101 -0.039905 0.02272203031606626 -0.02621262085615711 -0.039905 0.02622262085615663 -0.02271203031606682 -0.039905 0.02918939445540969 -0.01874888476366593 -0.039905 0.03156195615881324 -0.01440386241363332 -0.039905 0.03329200745198891 -0.009765415391005892 -0.039905 0.0343443294796636 -0.004927969100987742 -0.039905 0.0346975 9.999999999592998e-06 -0.039905 0.03434432947966371 0.004947969100986966 -0.039905 0.03329200745198911 0.0097854153910052 -0.039905 0.03156195615881352 0.01442386241363269 -0.039905 0.02918939445541005 0.01876888476366537 -0.039905 0.02622262085615701 0.02273203031606637 -0.039905 0.02272203031606666 0.02623
[...]
POINT_DATA 2244
FIELD FieldData 1
node_groups 1 2244 long
300 300 300 300 301 301 301 301 300 300 300 300 300 300 300 300 300 300 300 300 300 300 300 300 300 300 300 300 300 300 300 300 300 300 300 300 300 300 300 300 300 300 300 300 300 300 300 300 300 300 300 300 300 300 300 300 300 300 300 300 300 300 300 300 300 300 300 300 300 300 300 300 300 300 300 300 300 300 300 300 300 300 300 300 300 300 300 300 300 300 300 300 300 300 300 300 300 300 300 300 300 300 300 300 300 300 300 300 300 300 301 301 301 301 301 301 301 301 301 301 301 301 301 301 301 301 301 301 301 301 301 301 301 301 301 301 301 301 301 301 301 301 301 301 301 301 301 301 301 301 301 301 301 301 301 301 301 301 301 301 301 301 301 301 301 301 301 301 301 301 301 301 301 301 301 301 301 301 301 301 301 301 301 301 301 301 301 301 301 301 301 301 301 301 301 301 301 301 301 301 301 301 301 301 301 301 301 301 301 301 301 301 301 301 301 301 301 301 301 301 301 301 301 301 301 301 301 301 301 301 301 301 301 301 301 301 301 301 301 301 301 301 301 301 301 301 301 301 301 301 301 301 301 301 301 301 301 301 301 301 301 301 301 301 301 301 301 301 301 301 301 301 301 301 301 301 301 301 301 301 301 301 301 301 301 301 301 301 301 301 301 301 301 301 301 301 301 301 301 301 301 301 300 300 300 300 300 300 300 300 300 300 300 300 300 300 300 300 300 300 300 300 300 300 300 300 300 300 300 300 300 300 300 300 300 300 300 300 300 300 300 300 300 300 300 300 300 300 300 300 300 300 300 300 300 300 300 300 300 300 300 300 300 300 300 300 300 300 300 300 300 300 300 300 300 300 300 300 300 300 300 300 300 300 300 300 300 300 300 300 300 300 300 300 300 300 300 300 300 300 300 300 300 300 300 300 300 300 300 300 300 300 300 300 300 300 300 300 300 300 300 300 300 300 300 300 300 300 300 300 300 300 300 300 300 300 300 300 300 300 300 300 300 300 300 300 300 300 300 300 300 300 300 300 300 300 300 300 300 300 300 300 300 300 300 300 300 300 300 300 300 300 300 300 300 300 300 300 300 300 300 300 300 300 300 300 300 300 300 300 300 300 300 300 300 300 300 300 300 300 300 300 300 300 300 300 300 300 300 300 300 300 300 300 300 300 300 300 300 300 300 300 300 300 300 300 300 300 300 300 300 300 300 300 300 300 300 300 300 300 300 300 300 300 300 300 300 300 300 300 300 300 300 300 300 300 300 300 300 300 300 300 300 300 300 300 300 300 300 300 300 300 300 300 300 300 300 300 300 300 300 300 300 300 300 300 300 300 300 300 300 300 300 300 300 300 300 300 300 300 300 300 300 300 300 300 300 300 300 300 300 300 300 300 300 300 300 300 300 300 300 300 300 300 300 300 300 300 300 300 300 300 300 300 300 300 300 300 300 300 300 300 300 300 300 300 300 300 300 300 300 300 300 300 300 300 300 300 300 300 300 300 300 300 300 300 300 300 300 300 300 300 300 300 300 300 300 300 300 300 300 300 300 300 300 300 300 300 300 300 300 300 300 300 300 300 300 300 300 300 300 300 300 300 300 300 300 300 300 300 300 300 300 300 300 300 300 300 300 300 300 300 300 300 300 300 300 300 300 300 300 300 300 300 300 300 300 300 300 300 300 300 300 301 301 301 301 301 301 301 301 301 301 301 301 301 301 301 301 301 301 301 301 301 301 301 301 301 301 301 301 301 301 301 301 301 301 301 301 301 301 301 301 301 301 301 301 301 301 301 301 301 301 301 301 301 301 301 301 301 301 301 301 301 301 301 301 301 301 301 301 301 301 301 301 301 301 301 301 301 301 301 301 301 301 301 301 301 301 301 301 301 301 301 301 301 301 301 301 301 301 301 301 301 301 301 301 301 301 301 301 301 301 301 301 301 301 301 301 301 301 301 301 301 301 301 301 301 301 301 301 301 301 301 301 301 301 301 301 301 301 301 301 301 301 301 301 301 301 301 301 301 301 301 301 301 301 301 301 301 301 301 301 301 301 301 301 301 301 301 301 301 301 301 301 301 301 301 301 301 301 301 301 301 301 301 301 301 301 301 301 301 301 301 301 301 301 301 301 301 301 301 301 301 301 301 301 301 301 301 301 301 301 301 301 301 301 301 301 301 301 301 301 301 301 301 301 301 301 301 301 301 301 301 301 301 301 301 301 301 301 301 301 301 301 301 301 301 301 301 301 301 301 301 301 301 301 301 301 301 301 301 301 301 301 301 301 301 301 301 301 301 301 301 301 301 301 301 301 301 301 301 301 301 301 301 301 301 301 301 301 301 301 301 301 301 301 301 301 301 301 301 301 301 301 301 301 301 301 301 301 301 301 301 301 301 301 301 301 301 301 301 301 301 301 301 301 301 301 301 301 301 301 301 301 301 301 301 301 301 301 301 301 301 301 301 301 301 301 301 301 301 301 301 301 301 301 301 301 301 301 301 301 301 301 301 301 301 301 301 301 301 301 301 301 301 301 301 301 301 301 301 301 301 301 301 301 301 301 301 301 301 301 301 301 301 301 301 301 301 301 301 301 301 301 301 301 301 301 301 301 301 301 301 301 301 301 301 301 301 301 301 301 301 301 301 301 301 301 301 301 301 301 301 301 301 301 301 301 301 301 301 301 301 301 301 301 301 301 301 301 301 301 301 301 301 301 301 301 301 301 301 301 301 301 301 301 301 301 301 301 301 301 301 301 301 301 301 301 301 301 301 301 301 301 301 301 301 301 301 301 301 301 301 301 301 301 301 301 301 301 301 301 301 301 301 301 301 301 301 301 301 301 301 301 301 301 301 301 301 301 301 301 301 301 301 301 301 301 301 301 301 301 301 301 301 301 301 301 301 301 301 301 301 301 301 301 301 301 301 301 301 301 301 301 301 301 301 301 301 301 301 301 301 301 301 301 301 301 301 301 301 301 301 301 301 301 301 301 301 301 301 301 301 301 301 301 301 301 301 301 301 301 301 301 301 301 301 301 301 301 301 301 301 301 301 301 301 301 301 301 301 301 301 301 301 301 301 301 301 301 301 301 301 301 301 301 301 301 301 301 301 301 301 301 301 301 301 301 301 301 301 301 301 301 301 301 301 301 301 301 301 301 301 301 301 301 301 301 301 301 301 301 301 301 301 301 301 301 301 301 301 301 301 301 301 301 301 301 301 301 301 301 301 301 301 301 301 301 301 301 301 301 301 301 301 301 301 301 301 301 301 301 301 301 301 301 301 301 301 301 301 301 301 301 301 301 301 301 301 301 301 301 301 301 301 301 301 301 301 301 301 301 301 301 301 301 301 301 301 301 301 301 301 301 301 301 301 301 301 301 301 301 301 301 301 301 301 301 301 301 301 301 301 301 301 301 301 301 301 301 301 301 301 301 301 301 301 301 301 301 301 301 301 301 301 301 301 301 301 301 301 301 301 301 301 301 301 301 301 301 301 301 301 301 301 301 301 301 301 301 301 301 301 301 301 301 301 301 301 301 301 301 301 301 301 301 301 301 301 301 301 301 301 301 301 301 301 301 301 301 301 301 301 301 301 301 301 301 301 301 301 301 301 301 301 301 301 301 301 301 301 301 301 301 301 301 301 301 301 301 301 301 301 301 301 301 301 301 301 301 301 301 301 301 301 301 301 301 301 301 301 301 301 301 301 301 301 301 301 301 301 301 301 301 301 301 301 301 301 301 301 301 301 301 301 301 301 301 301 301 301 301 301 301 301 301 301 301 301 301 301 301 301 301 301 301 301 301 301 301 301 301 301 301 301 301 301 301 301 301 301 301 301 301 301 301 301 301 301 301 301 301 301 301 301 301 301 301 301 301 301 301 301 301 301 301 301 301 301 301 301 301 301 301 301 301 301 301 301 301 301 301 301 301 301 301 301 301 301 301 301 301 301 301 301 301 301 301 301 301 301 301 301 301 301 301 301 301 301 301 301 301 301 301 301 301 301 301 301 301 301 301 301 301 301 301 301 301 301 301 301 301 301 301 301 301 301 301 301 301 301 301 301 301 301 301 301 301 301 301 301 301 301 301 301 301 301 301 301 301 301 301 301 301 301 301 301 301 301 301 301 301 301 301 301 301 301 301 301 301 301 301 301 301 301 301 301 301 301 301 301 301 301 301 301 301 301 301 301 301 301 301 301 301 301 301 301 301 301 301 301 301 301 301 301 301 301 301 301 301 301 301 301 301 301 301 301 301 301 301 301 301 301 301 301 301 301 301 301 301 301 301 301 301 301 301 301 301 301 301 301 301 301 301 301 301 301 301 301 301 301 301 301 301 301 301 301 301 301 301 301 301 301 301 301 301 301 301 301 301 301 301 301 301 301 301 301 301 301 301 301 301 301 301 301 301 301 301 301 301 301 301 301 301 301 301 301 301 301 301 301 301 301 301 301 301 301 301 301 301 301 301 301 301 301 301 301 301 301 301 301 301 301 301 301 301 301 301 301 301 301 301 301 301 301 301 301 301 301 301 301 301 301 301 301 301 301 301 301 301 301 301 301 301 301 301 301 301 301 301 301 301 301 301 301 301 301 301 301 301 301 301 301 301 301 301 301 301 301 301 301 301 301 301 301 301 301 301 301 301 301 301 301 301 301 301 301 301 301 301 301 301 301 301 301 301 301 301 301 301 301 301 301 301 301 301 301 301 301 301 301 301 301 301 301 301 301 301 301 301 301 301 301 301 301 301 301 301 301 301 301 301 301 301 301 301 301 301 301 301 301 301 301 301 301 301 301 301 301 301 301 301 301 301 301 301 301 301 301 301 301 301 301 301 301 301 301 301 301 301 301 301 301 301 301 301 301 301 301 301 301 301 301 301 301 301 301 301 301 301 301 301 301 301 301 301 301 301 301 301 301 301 301 301 301 301 301 301 301 301 301 301 301 301 301 301 301 301 301 301 301 301 301 301 301 301 301 301 301 301 301 301 301 301 301 301 301 301 301 301 301 301 301 301 301 301 301 301 301 301 301 301 301 301 301 301 301 301 301 301 301 301 301 301 301 301 301 301 301 301 301 301 301
CELL_DATA 6398
FIELD FieldData 1
mat_id 1 6398 long
300 300 300 300 300 300 300 300 300 300 300 300 300 300 300 300 300 300 300 300 300 300 300 300 300 300 300 300 300 300 300 300 300 300 300 300 300 300 300 300 300 300 300 300 300 300 300 300 300 300 300 300 300 300 300 300 300 300 300 300 300 300 300 300 300 300 300 300 300 300 300 300 300 300 300 300 300 300 300 300 300 300 300 300 300 300 300 300 300 300 300 300 300 300 300 300 300 300 300 300 300 300 300 300 300 300 300 300 300 300 300 300 300 300 300 300 300 300 300 300 300 300 300 300 300 300 300 300 300 300 300 300 300 300 300 300 300 300 300 300 300 300 300 300 300 300 300 300 300 300 300 300 300 300 300 300 300 300 300 300 300 300 300 300 300 300 300 300 300 300 300 300 300 300 300 300 300 300 300 300 300 300 300 300 300 300 300 300 300 300 300 300 300 300 300 300 300 300 300 300 300 300 300 300 300 300 300 300 300 300 300 300 300 300 300 300 300 300 300 300 300 300 300 300 300 300 300 300 300 300 300 300 300 300 300 300 300 300 300 300 300 300 300 300 300 300 300 300 300 300 300 300 300 300 300 300 300 300 300 300 300 300 300 300 300 300 300 300 300 300 300 300 300 300 300 300 300 300 300 300 300 300 300 300 300 300 300 300 300 300 300 300 300 300 300 300 300 300 300 300 300 300 300 300 300 300 300 300 300 300 300 300 300 300 300 300 300 300 300 300 300 300 300 300 300 300 300 300 300 300 300 300 300 300 300 300 300 300 300 300 300 300 300 300 300 300 300 300 300 300 300 300 300 300 300 300 300 300 300 300 300 300 300 300 300 300 300 300 300 300 300 300 300 300 300 300 300 300 300 300 300 300 300 300 300 300 300 300 300 300 300 300 300 300 300 300 300 300 300 300 300 300 300 300 300 300 300 300 300 300 300 300 300 300 300 300 300 300 300 300 300 300 300 300 300 300 300 300 300 300 300 300 300 300 300 300 300 300 300 300 300 300 300 300 300 300 300 300 300 300 300 300 300 300 300 300 300 300 300 300 300 300 300 300 300 300 300 300 300 300 300 300 300 300 300 300 300 300 300 300 300 300 300 300 300 300 300 300 300 300 300 300 300 300 300 300 300 300 300 300 300 300 300 300 300 300 300 300 300 300 300 300 300 300 300 300 300 300 300 300 300 300 300 300 300 300 300 300 300 300 300 300 300 300 300 300 300 300 300 300 300 300 300 300 300 300 300 300 300 300 300 300 300 300 300 300 300 300 300 300 300 300 300 300 300 300 300 300 300 300 300 300 300 300 300 300 300 300 300 300 300 300 300 300 300 300 300 300 300 300 300 300 300 300 300 300 300 300 300 300 300 300 300 300 300 300 300 300 300 300 300 300 300 300 300 300 300 300 300 300 300 300 300 300 300 300 300 300 300 300 300 300 300 300 300 300 300 300 300 300 300 300 300 300 300 300 300 300 300 300 300 300 300 300 300 300 300 300 300 300 300 300 300 300 300 300 300 300 300 300 300 300 300 300 300 300 300 300 300 300 300 300 300 300 300 300 300 300 300 300 300 300 300 300 300 300 300 300 300 300 300 300 300 300 300 300 300 300 300 300 300 300 300 300 300 300 300 300 300 300 300 300 300 300 300 300 300 300 300 300 300 300 300 300 300 300 300 300 300 300 300 300 300 300 300 300 300 300 300 300 300 300 300 300 300 300 300 300 300 300 300 300 300 300 300 300 300 300 300 300 300 300 300 300 300 300 300 300 300 300 300 300 300 300 300 300 300 300 300 300 300 300 300 300 300 300 300 300 300 300 300 300 300 300 300 300 300 300 300 300 300 300 300 300 300 300 300 300 300 300 300 300 300 300 300 300 300 300 300 300 300 300 300 300 300 300 300 300 300 300 300 300 300 300 300 300 300 300 300 300 300 300 300 300 300 300 300 300 300 300 300 300 300 300 300 300 300 300 300 300 300 300 300 300 300 300 300 300 300 300 300 300 300 300 300 300 300 300 300 300 300 300 300 300 300 300 300 300 300 300 300 300 300 300 300 300 300 300 300 300 300 300 300 300 300 300 300 300 300 300 300 300 300 300 300 300 300 300 300 300 300 300 300 300 300 300 300 300 300 300 300 300 300 300 300 300 300 300 300 300 300 300 300 300 300 300 300 300 300 300 300 300 300 300 300 300 300 300 300 300 300 300 300 300 300 300 300 300 300 300 300 300 300 300 300 300 300 300 300 300 300 300 300 300 300 300 300 300 300 300 300 300 300 300 300 300 300 300 300 300 300 300 300 300 300 300 300 300 300 300 300 300 300 300 300 300 300 300 300 300 300 300 300 300 300 300 300 300 300 300 300 300 300 300 300 300 300 300 300 300 300 300 300 300 300 300 300 300 300 300 300 300 300 300 300 300 300 300 300 300 300 300 300 300 300 300 300 300 300 300 300 300 300 300 300 300 300 300 300 300 300 300 300 300 300 300 300 300 300 300 300 300 300 300 300 300 300 300 300 300 300 300 300 300 300 300 300 300 300 300 300 300 300 300 300 300 300 300 300 300 300 300 300 300 300 300 300 300 300 300 300 300 300 300 300 300 300 300 300 300 300 300 300 300 300 300 300 300 300 300 300 300 300 300 300 300 300 300 300 300 300 300 300 300 300 300 300 300 300 300 300 300 300 300 300 300 300 300 300 300 300 300 300 300 300 300 300 300 300 300 300 300 300 300 300 300 300 300 300 300 300 300 300 300 300 300 300 300 300 300 300 300 300 300 300 300 300 300 300 300 300 300 300 300 300 300 300 300 300 300 300 300 300 300 300 300 300 300 300 300 300 300 300 300 300 300 300 300 300 300 300 300 300 300 300 300 300 300 300 300 300 300 300 300 300 300 300 300 300 300 300 300 300 300 300 300 300 300 300 300 300 300 300 300 300 300 300 300 300 300 300 300 300 300 300 300 300 300 300 300 300 300 300 300 300 300 300 300 300 300 300 300 300 300 300 300 300 300 300 300 300 300 300 300 300 300 300 300 300 300 300 300 300 300 300 300 300 300 300 300 300 300 300 300 300 300 300 300 300 300 300 300 300 300 300 300 300 300 300 300 300 300 300 300 300 300 300 300 300 300 300 300 300 300 300 300 300 300 300 300 300 300 300 300 300 300 300 300 300 300 300 300 300 300 300 300 300 300 300 300 300 300 300 300 300 300 300 300 300 300 300 300 300 300 300 300 300 300 300 300 300 300 300 300 300 300 300 300 300 300 300 300 300 300 300 300 300 300 300 300 300 300 300 300 300 300 300 300 300 300 300 300 300 300 300 300 300 300 300 300 300 300 300 300 300 300 300 300 300 300 300 300 300 300 300 300 300 300 300 300 300 300 300 300 300 300 300 300 300 300 300 300 300 300 300 300 300 300 300 300 300 300 300 300 300 300 300 300 300 300 300 300 300 300 301 301 301 301 301 301 301 301 301 301 301 301 301 301 301 301 301 301 301 301 301 301 301 301 301 301 301 301 301 301 301 301 301 301 301 301 301 301 301 301 301 301 301 301 301 301 301 301 301 301 301 301 301 301 301 301 301 301 301 301 301 301 301 301 301 301 301 301 301 301 301 301 301 301 301 301 301 301 301 301 301 301 301 301 301 301 301 301 301 301 301 301 301 301 301 301 301 301 301 301 301 301 301 301 301 301 301 301 301 301 301 301 301 301 301 301 301 301 301 301 301 301 301 301 301 301 301 301 301 301 301 301 301 301 301 301 301 301 301 301 301 301 301 301 301 301 301 301 301 301 301 301 301 301 301 301 301 301 301 301 301 301 301 301 301 301 301 301 301 301 301 301 301 301 301 301 301 301 301 301 301 301 301 301 301 301 301 301 301 301 301 301 301 301 301 301 301 301 301 301 301 301 301 301 301 301 301 301 301 301 301 301 301 301 301 301 301 301 301 301 301 301 301 301 301 301 301 301 301 301 301 301 301 301 301 301 301 301 301 301 301 301 301 301 301 301 301 301 301 301 301 301 301 301 301 301 301 301 301 301 301 301 301 301 301 301 301 301 301 301 301 301 301 301 301 301 301 301 301 301 301 301 301 301 301 301 301 301 301 301 301 301 301 301 301 301 301 301 301 301 301 301 301 301 301 301 301 301 301 301 301 301 301 301 301 301 301 301 301 301 301 301 301 301 301 301 301 301 301 301 301 301 301 301 301 301 301 301 301 301 301 301 301 301 301 301 301 301 301 301 301 301 301 301 301 301 301 301 301 301 301 301 301 301 301 301 301 301 301 301 301 301 301 301 301 301 301 301 301 301 301 301 301 301 301 301 301 301 301 301 301 301 301 301 301 301 301 301 301 301 301 301 301 301 301 301 301 301 301 301 301 301 301 301 301 301 301 301 301 301 301 301 301 301 301 301 301 301 301 301 301 301 301 301 301 301 301 301 301 301 301 301 301 301 301 301 301 301 301 301 301 301 301 301 301 301 301 301 301 301 301 301 301 301 301 301 301 301 301 301 301 301 301 301 301 301 301 301 301 301 301 301 301 301 301 301 301 301 301 301 301 301 301 301 301 301 301 301 301 301 301 301 301 301 301 301 301 301 301 301 301 301 301 301 301 301 301 301 301 301 301 301 301 301 301 301 301 301 301 301 301 301 301 301 301 301 301 301 301 301 301 301 301 301 301 301 301 301 301 301 301 301 301 301 301 301 301 301 301 301 301 301 301 301 301 301 301 301 301 301 301 301 301 301 301 301 301 301 301 301 301 301 301 301 301 301 301 301 301 301 301 301 301 301 301 301 301 301 301 301 301 301 301 301 301 301 301 301 301 301 301 301 301 301 301 301 301 301 301 301 301 301 301 301 301 301 301 301 301 301 301 301 301 301 301 301 301 301 301 301 301 301 301 301 301 301 301 301 301 301 301 301 301 301 301 301 301 301 301 301 301 301 301 301 301 301 301 301 301 301 301 301 301 301 301 301 301 301 301 301 301 301 301 301 301 301 301 301 301 301 301 301 301 301 301 301 301 301 301 301 301 301 301 301 301 301 301 301 301 301 301 301 301 301 301 301 301 301 301 301 301 301 301 301 301 301 301 301 301 301 301 301 301 301 301 301 301 301 301 301 301 301 301 301 301 301 301 301 301 301 301 301 301 301 301 301 301 301 301 301 301 301 301 301 301 301 301 301 301 301 301 301 301 301 301 301 301 301 301 301 301 301 301 301 301 301 301 301 301 301 301 301 301 301 301 301 301 301 301 301 301 301 301 301 301 301 301 301 301 301 301 301 301 301 301 301 301 301 301 301 301 301 301 301 301 301 301 301 301 301 301 301 301 301 301 301 301 301 301 301 301 301 301 301 301 301 301 301 301 301 301 301 301 301 301 301 301 301 301 301 301 301 301 301 301 301 301 301 301 301 301 301 301 301 301 301 301 301 301 301 301 301 301 301 301 301 301 301 301 301 301 301 301 301 301 301 301 301 301 301 301 301 301 301 301 301 301 301 301 301 301 301 301 301 301 301 301 301 301 301 301 301 301 301 301 301 301 301 301 301 301 301 301 301 301 301 301 301 301 301 301 301 301 301 301 301 301 301 301 301 301 301 301 301 301 301 301 301 301 301 301 301 301 301 301 301 301 301 301 301 301 301 301 301 301 301 301 301 301 301 301 301 301 301 301 301 301 301 301 301 301 301 301 301 301 301 301 301 301 301 301 301 301 301 301 301 301 301 301 301 301 301 301 301 301 301 301 301 301 301 301 301 301 301 301 301 301 301 301 301 301 301 301 301 301 301 301 301 301 301 301 301 301 301 301 301 301 301 301 301 301 301 301 301 301 301 301 301 301 301 301 301 301 301 301 301 301 301 301 301 301 301 301 301 301 301 301 301 301 301 301 301 301 301 301 301 301 301 301 301 301 301 301 301 301 301 301 301 301 301 301 301 301 301 301 301 301 301 301 301 301 301 301 301 301 301 301 301 301 301 301 301 301 301 301 301 301 301 301 301 301 301 301 301 301 301 301 301 301 301 301 301 301 301 301 301 301 301 301 301 301 301 301 301 301 301 301 301 301 301 301 301 301 301 301 301 301 301 301 301 301 301 301 301 301 301 301 301 301 301 301 301 301 301 301 301 301 301 301 301 301 301 301 301 301 301 301 301 301 301 301 301 301 301 30